<?xml version="1.0" encoding="UTF-8"?>

<!-- generated on 2022-04-29 16:24:52 by Eclipse SUMO sumo Version 1.9.2
<configuration xmlns:xsi="http://www.w3.org/2001/XMLSchema-instance" xsi:noNamespaceSchemaLocation="http://sumo.dlr.de/xsd/sumoConfiguration.xsd">

    <input>
        <net-file value="spiderverse.net.xml"/>
    </input>

    <output>
        <tripinfo-output value="output2.xml"/>
    </output>

    <traci_server>
        <remote-port value="56276"/>
    </traci_server>

</configuration>
-->

<tripinfos xmlns:xsi="http://www.w3.org/2001/XMLSchema-instance" xsi:noNamespaceSchemaLocation="http://sumo.dlr.de/xsd/tripinfo_file.xsd">
    <tripinfo id="SpaceShip34" depart="0.00" departLane="B1A1_0" departPos="5.10" departSpeed="0.00" departDelay="0.00" arrival="17.00" arrivalLane="A1B7_0" arrivalPos="78.64" arrivalSpeed="12.62" duration="17.00" routeLength="177.13" waitingTime="0.00" waitingCount="0" stopTime="0.00" timeLoss="3.56" rerouteNo="0" devices="tripinfo_SpaceShip34" vType="DEFAULT_VEHTYPE" speedFactor="0.99" vaporized=""/>
    <tripinfo id="SpaceShip71" depart="3.00" departLane="B3A1_0" departPos="5.10" departSpeed="0.00" departDelay="3.00" arrival="25.00" arrivalLane="A1B4_0" arrivalPos="78.64" arrivalSpeed="12.25" duration="22.00" routeLength="162.24" waitingTime="0.00" waitingCount="0" stopTime="0.00" timeLoss="8.51" rerouteNo="0" devices="tripinfo_SpaceShip71" vType="DEFAULT_VEHTYPE" speedFactor="0.97" vaporized=""/>
    <tripinfo id="SpaceShip164" depart="0.00" departLane="C9B9_0" departPos="5.10" departSpeed="0.00" departDelay="0.00" arrival="26.00" arrivalLane="B4C4_0" arrivalPos="85.19" arrivalSpeed="13.76" duration="26.00" routeLength="362.06" waitingTime="0.00" waitingCount="0" stopTime="0.00" timeLoss="6.38" rerouteNo="1" devices="tripinfo_SpaceShip164 routing_SpaceShip164" vType="DEFAULT_VEHTYPE" speedFactor="1.05" vaporized=""/>
    <tripinfo id="SpaceShip105" depart="0.00" departLane="D1C1_0" departPos="5.10" departSpeed="0.00" departDelay="0.00" arrival="30.00" arrivalLane="C9D9_0" arrivalPos="85.19" arrivalSpeed="14.50" duration="30.00" routeLength="314.97" waitingTime="0.00" waitingCount="0" stopTime="0.00" timeLoss="7.52" rerouteNo="1" devices="tripinfo_SpaceShip105 routing_SpaceShip105" vType="DEFAULT_VEHTYPE" speedFactor="1.07" vaporized=""/>
    <tripinfo id="SpaceShip46" depart="6.00" departLane="A1B1_0" departPos="5.10" departSpeed="0.00" departDelay="6.00" arrival="34.00" arrivalLane="B1A1_0" arrivalPos="78.64" arrivalSpeed="13.62" duration="28.00" routeLength="156.86" waitingTime="3.00" waitingCount="1" stopTime="0.00" timeLoss="15.15" rerouteNo="0" devices="tripinfo_SpaceShip46" vType="DEFAULT_VEHTYPE" speedFactor="1.00" vaporized=""/>
    <tripinfo id="SpaceShip60" depart="0.00" departLane="B7A1_0" departPos="5.10" departSpeed="0.00" departDelay="0.00" arrival="37.00" arrivalLane="D3E3_0" arrivalPos="85.19" arrivalSpeed="14.86" duration="37.00" routeLength="477.98" waitingTime="0.00" waitingCount="0" stopTime="0.00" timeLoss="4.57" rerouteNo="1" devices="tripinfo_SpaceShip60 routing_SpaceShip60" vType="DEFAULT_VEHTYPE" speedFactor="1.08" vaporized=""/>
    <tripinfo id="SpaceShip93" depart="0.00" departLane="B9A1_0" departPos="5.10" departSpeed="0.00" departDelay="0.00" arrival="41.00" arrivalLane="B1A1_0" arrivalPos="78.64" arrivalSpeed="11.69" duration="41.00" routeLength="245.56" waitingTime="3.00" waitingCount="3" stopTime="0.00" timeLoss="18.73" rerouteNo="1" devices="tripinfo_SpaceShip93 routing_SpaceShip93" vType="DEFAULT_VEHTYPE" speedFactor="0.92" vaporized=""/>
    <tripinfo id="SpaceShip148" depart="3.00" departLane="D1C1_0" departPos="5.10" departSpeed="0.00" departDelay="3.00" arrival="46.00" arrivalLane="B8C8_0" arrivalPos="85.19" arrivalSpeed="13.15" duration="43.00" routeLength="472.86" waitingTime="0.00" waitingCount="0" stopTime="0.00" timeLoss="6.34" rerouteNo="1" devices="tripinfo_SpaceShip148 routing_SpaceShip148" vType="DEFAULT_VEHTYPE" speedFactor="0.97" vaporized=""/>
    <tripinfo id="SpaceShip59" depart="19.00" departLane="A1B1_0" departPos="5.10" departSpeed="0.00" departDelay="19.00" arrival="48.00" arrivalLane="B1A1_0" arrivalPos="78.64" arrivalSpeed="13.03" duration="29.00" routeLength="156.86" waitingTime="0.00" waitingCount="0" stopTime="0.00" timeLoss="15.72" rerouteNo="0" devices="tripinfo_SpaceShip59" vType="DEFAULT_VEHTYPE" speedFactor="0.97" vaporized=""/>
    <tripinfo id="SpaceShip38" depart="0.00" departLane="D6C6_0" departPos="5.10" departSpeed="0.00" departDelay="0.00" arrival="50.00" arrivalLane="B1A1_0" arrivalPos="78.64" arrivalSpeed="14.31" duration="50.00" routeLength="460.19" waitingTime="0.00" waitingCount="0" stopTime="0.00" timeLoss="18.34" rerouteNo="1" devices="tripinfo_SpaceShip38 routing_SpaceShip38" vType="DEFAULT_VEHTYPE" speedFactor="1.10" vaporized=""/>
    <tripinfo id="SpaceShip98" depart="3.00" departLane="E2D2_0" departPos="5.10" departSpeed="0.00" departDelay="3.00" arrival="53.00" arrivalLane="C5D5_0" arrivalPos="85.19" arrivalSpeed="14.28" duration="50.00" routeLength="673.77" waitingTime="0.00" waitingCount="0" stopTime="0.00" timeLoss="6.48" rerouteNo="1" devices="tripinfo_SpaceShip98 routing_SpaceShip98" vType="DEFAULT_VEHTYPE" speedFactor="1.12" vaporized=""/>
    <tripinfo id="SpaceShip201" depart="27.00" departLane="B4A1_0" departPos="5.10" departSpeed="0.00" departDelay="1.00" arrival="54.00" arrivalLane="B7C7_0" arrivalPos="85.20" arrivalSpeed="11.34" duration="27.00" routeLength="273.77" waitingTime="0.00" waitingCount="0" stopTime="0.00" timeLoss="4.16" rerouteNo="1" devices="tripinfo_SpaceShip201 routing_SpaceShip201" vType="DEFAULT_VEHTYPE" speedFactor="0.87" vaporized=""/>
    <tripinfo id="SpaceShip141" depart="0.00" departLane="L2K2_0" departPos="5.10" departSpeed="0.00" departDelay="0.00" arrival="55.00" arrivalLane="K2K3_0" arrivalPos="666.90" arrivalSpeed="16.17" duration="55.00" routeLength="758.07" waitingTime="0.00" waitingCount="0" stopTime="0.00" timeLoss="7.14" rerouteNo="0" devices="tripinfo_SpaceShip141" vType="DEFAULT_VEHTYPE" speedFactor="1.16" vaporized=""/>
    <tripinfo id="SpaceShip190" depart="3.00" departLane="B6A1_0" departPos="5.10" departSpeed="0.00" departDelay="3.00" arrival="56.00" arrivalLane="E4F4_0" arrivalPos="85.19" arrivalSpeed="11.37" duration="53.00" routeLength="572.87" waitingTime="0.00" waitingCount="0" stopTime="0.00" timeLoss="5.47" rerouteNo="1" devices="tripinfo_SpaceShip190 routing_SpaceShip190" vType="DEFAULT_VEHTYPE" speedFactor="0.90" vaporized=""/>
    <tripinfo id="SpaceShip74" depart="0.00" departLane="G3F3_0" departPos="5.10" departSpeed="0.00" departDelay="0.00" arrival="58.00" arrivalLane="B2C2_0" arrivalPos="85.19" arrivalSpeed="13.04" duration="58.00" routeLength="646.56" waitingTime="0.00" waitingCount="0" stopTime="0.00" timeLoss="7.72" rerouteNo="1" devices="tripinfo_SpaceShip74 routing_SpaceShip74" vType="DEFAULT_VEHTYPE" speedFactor="0.96" vaporized=""/>
    <tripinfo id="SpaceShip194" depart="0.00" departLane="F3E3_0" departPos="5.10" departSpeed="0.00" departDelay="0.00" arrival="60.00" arrivalLane="B5C5_0" arrivalPos="85.19" arrivalSpeed="13.70" duration="60.00" routeLength="607.42" waitingTime="1.00" waitingCount="1" stopTime="0.00" timeLoss="14.67" rerouteNo="1" devices="tripinfo_SpaceShip194 routing_SpaceShip194" vType="DEFAULT_VEHTYPE" speedFactor="1.00" vaporized=""/>
    <tripinfo id="SpaceShip76" depart="0.00" departLane="B8A1_0" departPos="5.10" departSpeed="0.00" departDelay="0.00" arrival="61.00" arrivalLane="G2H2_0" arrivalPos="85.19" arrivalSpeed="13.89" duration="61.00" routeLength="773.77" waitingTime="0.00" waitingCount="0" stopTime="0.00" timeLoss="6.00" rerouteNo="1" devices="tripinfo_SpaceShip76 routing_SpaceShip76" vType="DEFAULT_VEHTYPE" speedFactor="1.03" vaporized=""/>
    <tripinfo id="SpaceShip94" depart="0.00" departLane="F1E1_0" departPos="5.10" departSpeed="0.00" departDelay="0.00" arrival="65.00" arrivalLane="D6E6_0" arrivalPos="85.19" arrivalSpeed="15.12" duration="65.00" routeLength="877.98" waitingTime="0.00" waitingCount="0" stopTime="0.00" timeLoss="6.21" rerouteNo="1" devices="tripinfo_SpaceShip94 routing_SpaceShip94" vType="DEFAULT_VEHTYPE" speedFactor="1.09" vaporized=""/>
    <tripinfo id="SpaceShip30" depart="0.00" departLane="E9D9_0" departPos="5.10" departSpeed="0.00" departDelay="0.00" arrival="68.00" arrivalLane="F4G4_0" arrivalPos="85.19" arrivalSpeed="15.92" duration="68.00" routeLength="976.88" waitingTime="0.00" waitingCount="0" stopTime="0.00" timeLoss="8.16" rerouteNo="1" devices="tripinfo_SpaceShip30 routing_SpaceShip30" vType="DEFAULT_VEHTYPE" speedFactor="1.18" vaporized=""/>
    <tripinfo id="SpaceShip125" depart="0.00" departLane="C7B7_0" departPos="5.10" departSpeed="0.00" departDelay="0.00" arrival="70.00" arrivalLane="F1G1_0" arrivalPos="85.19" arrivalSpeed="15.32" duration="70.00" routeLength="773.78" waitingTime="0.00" waitingCount="0" stopTime="0.00" timeLoss="21.08" rerouteNo="1" devices="tripinfo_SpaceShip125 routing_SpaceShip125" vType="DEFAULT_VEHTYPE" speedFactor="1.15" vaporized=""/>
    <tripinfo id="SpaceShip156" depart="53.00" departLane="A1B1_0" departPos="5.10" departSpeed="0.00" departDelay="53.00" arrival="72.00" arrivalLane="B1A1_0" arrivalPos="78.64" arrivalSpeed="15.86" duration="19.00" routeLength="156.86" waitingTime="0.00" waitingCount="0" stopTime="0.00" timeLoss="8.30" rerouteNo="0" devices="tripinfo_SpaceShip156" vType="DEFAULT_VEHTYPE" speedFactor="1.18" vaporized=""/>
    <tripinfo id="SpaceShip152" depart="6.00" departLane="B3A1_0" departPos="5.10" departSpeed="0.00" departDelay="6.00" arrival="73.00" arrivalLane="H6I6_0" arrivalPos="85.19" arrivalSpeed="14.42" duration="67.00" routeLength="873.76" waitingTime="0.00" waitingCount="0" stopTime="0.00" timeLoss="7.51" rerouteNo="1" devices="tripinfo_SpaceShip152 routing_SpaceShip152" vType="DEFAULT_VEHTYPE" speedFactor="1.07" vaporized=""/>
    <tripinfo id="SpaceShip82" depart="0.00" departLane="H5G5_0" departPos="5.10" departSpeed="0.00" departDelay="0.00" arrival="74.00" arrivalLane="B4C4_0" arrivalPos="85.19" arrivalSpeed="13.54" duration="74.00" routeLength="746.55" waitingTime="6.00" waitingCount="1" stopTime="0.00" timeLoss="19.87" rerouteNo="1" devices="tripinfo_SpaceShip82 routing_SpaceShip82" vType="DEFAULT_VEHTYPE" speedFactor="1.02" vaporized=""/>
    <tripinfo id="SpaceShip129" depart="50.00" departLane="A1B1_0" departPos="5.10" departSpeed="0.00" departDelay="50.00" arrival="78.00" arrivalLane="A1B8_0" arrivalPos="78.64" arrivalSpeed="13.24" duration="28.00" routeLength="256.18" waitingTime="0.00" waitingCount="0" stopTime="0.00" timeLoss="7.95" rerouteNo="1" devices="tripinfo_SpaceShip129 routing_SpaceShip129" vType="DEFAULT_VEHTYPE" speedFactor="1.01" vaporized=""/>
    <tripinfo id="SpaceShip113" depart="0.00" departLane="M3L3_0" departPos="5.10" departSpeed="0.00" departDelay="0.00" arrival="83.00" arrivalLane="I4_4_0" arrivalPos="85.19" arrivalSpeed="13.25" duration="83.00" routeLength="1017.53" waitingTime="0.00" waitingCount="0" stopTime="0.00" timeLoss="9.28" rerouteNo="1" devices="tripinfo_SpaceShip113 routing_SpaceShip113" vType="DEFAULT_VEHTYPE" speedFactor="1.01" vaporized=""/>
    <tripinfo id="SpaceShip39" depart="3.00" departLane="A1B1_0" departPos="5.10" departSpeed="0.00" departDelay="3.00" arrival="84.00" arrivalLane="F3G3_0" arrivalPos="85.19" arrivalSpeed="11.26" duration="81.00" routeLength="705.52" waitingTime="5.00" waitingCount="2" stopTime="0.00" timeLoss="22.43" rerouteNo="1" devices="tripinfo_SpaceShip39 routing_SpaceShip39" vType="DEFAULT_VEHTYPE" speedFactor="0.90" vaporized=""/>
    <tripinfo id="SpaceShip193" depart="6.00" departLane="E2D2_0" departPos="5.10" departSpeed="0.00" departDelay="6.00" arrival="85.00" arrivalLane="F4G4_0" arrivalPos="85.19" arrivalSpeed="14.01" duration="79.00" routeLength="781.03" waitingTime="3.00" waitingCount="1" stopTime="0.00" timeLoss="24.79" rerouteNo="1" devices="tripinfo_SpaceShip193 routing_SpaceShip193" vType="DEFAULT_VEHTYPE" speedFactor="1.07" vaporized=""/>
    <tripinfo id="SpaceShip68" depart="3.00" departLane="H9G9_0" departPos="5.10" departSpeed="0.00" departDelay="3.00" arrival="92.00" arrivalLane="H2I2_0" arrivalPos="85.19" arrivalSpeed="13.54" duration="89.00" routeLength="1091.45" waitingTime="0.00" waitingCount="0" stopTime="0.00" timeLoss="12.64" rerouteNo="1" devices="tripinfo_SpaceShip68 routing_SpaceShip68" vType="DEFAULT_VEHTYPE" speedFactor="1.04" vaporized=""/>
    <tripinfo id="SpaceShip73" depart="0.00" departLane="L1K1_0" departPos="5.10" departSpeed="0.00" departDelay="0.00" arrival="92.00" arrivalLane="D9E9_0" arrivalPos="85.19" arrivalSpeed="14.11" duration="92.00" routeLength="1083.38" waitingTime="3.00" waitingCount="1" stopTime="0.00" timeLoss="16.70" rerouteNo="1" devices="tripinfo_SpaceShip73 routing_SpaceShip73" vType="DEFAULT_VEHTYPE" speedFactor="1.06" vaporized=""/>
    <tripinfo id="SpaceShip184" depart="3.00" departLane="F8E8_0" departPos="5.10" departSpeed="0.00" departDelay="3.00" arrival="93.00" arrivalLane="F3G3_0" arrivalPos="85.19" arrivalSpeed="11.89" duration="90.00" routeLength="1076.87" waitingTime="0.00" waitingCount="0" stopTime="0.00" timeLoss="7.62" rerouteNo="1" devices="tripinfo_SpaceShip184 routing_SpaceShip184" vType="DEFAULT_VEHTYPE" speedFactor="0.94" vaporized=""/>
    <tripinfo id="SpaceShip97" depart="3.00" departLane="_2I2_0" departPos="5.10" departSpeed="0.00" departDelay="3.00" arrival="97.00" arrivalLane="B8C8_0" arrivalPos="85.19" arrivalSpeed="12.26" duration="94.00" routeLength="1077.13" waitingTime="0.00" waitingCount="0" stopTime="0.00" timeLoss="7.69" rerouteNo="1" devices="tripinfo_SpaceShip97 routing_SpaceShip97" vType="DEFAULT_VEHTYPE" speedFactor="0.91" vaporized=""/>
    <tripinfo id="SpaceShip175" depart="0.00" departLane="B4A1_0" departPos="5.10" departSpeed="0.00" departDelay="0.00" arrival="99.00" arrivalLane="K8L8_0" arrivalPos="85.19" arrivalSpeed="12.05" duration="99.00" routeLength="1176.88" waitingTime="0.00" waitingCount="0" stopTime="0.00" timeLoss="6.61" rerouteNo="1" devices="tripinfo_SpaceShip175 routing_SpaceShip175" vType="DEFAULT_VEHTYPE" speedFactor="0.92" vaporized=""/>
    <tripinfo id="SpaceShip32" depart="0.00" departLane="L8K8_0" departPos="5.10" departSpeed="0.00" departDelay="0.00" arrival="100.00" arrivalLane="B5C5_0" arrivalPos="85.19" arrivalSpeed="13.52" duration="100.00" routeLength="1277.14" waitingTime="0.00" waitingCount="0" stopTime="0.00" timeLoss="7.66" rerouteNo="1" devices="tripinfo_SpaceShip32 routing_SpaceShip32" vType="DEFAULT_VEHTYPE" speedFactor="1.01" vaporized=""/>
    <tripinfo id="SpaceShip81" depart="0.00" departLane="_4I4_0" departPos="5.10" departSpeed="0.00" departDelay="0.00" arrival="100.00" arrivalLane="D8E8_0" arrivalPos="85.19" arrivalSpeed="13.78" duration="100.00" routeLength="1276.89" waitingTime="0.00" waitingCount="0" stopTime="0.00" timeLoss="7.52" rerouteNo="1" devices="tripinfo_SpaceShip81 routing_SpaceShip81" vType="DEFAULT_VEHTYPE" speedFactor="1.00" vaporized=""/>
    <tripinfo id="SpaceShip217" depart="66.00" departLane="E6D6_0" departPos="5.10" departSpeed="0.00" departDelay="0.00" arrival="103.00" arrivalLane="A1B1_0" arrivalPos="78.64" arrivalSpeed="13.79" duration="37.00" routeLength="476.87" waitingTime="0.00" waitingCount="0" stopTime="0.00" timeLoss="4.71" rerouteNo="1" devices="tripinfo_SpaceShip217 routing_SpaceShip217" vType="DEFAULT_VEHTYPE" speedFactor="1.07" vaporized=""/>
    <tripinfo id="SpaceShip61" depart="0.00" departLane="T3S3_0" departPos="5.10" departSpeed="0.00" departDelay="0.00" arrival="104.00" arrivalLane="S2T2_0" arrivalPos="85.19" arrivalSpeed="14.42" duration="104.00" routeLength="1409.43" waitingTime="0.00" waitingCount="0" stopTime="0.00" timeLoss="11.77" rerouteNo="1" devices="tripinfo_SpaceShip61 routing_SpaceShip61" vType="DEFAULT_VEHTYPE" speedFactor="1.12" vaporized=""/>
    <tripinfo id="SpaceShip191" depart="3.00" departLane="_4I4_0" departPos="5.10" departSpeed="0.00" departDelay="3.00" arrival="104.00" arrivalLane="F6G6_0" arrivalPos="85.19" arrivalSpeed="12.04" duration="101.00" routeLength="1154.65" waitingTime="0.00" waitingCount="0" stopTime="0.00" timeLoss="9.87" rerouteNo="1" devices="tripinfo_SpaceShip191 routing_SpaceShip191" vType="DEFAULT_VEHTYPE" speedFactor="0.93" vaporized=""/>
    <tripinfo id="SpaceShip195" depart="3.00" departLane="M4L4_0" departPos="5.10" departSpeed="0.00" departDelay="3.00" arrival="106.00" arrivalLane="M3N3_0" arrivalPos="85.19" arrivalSpeed="11.63" duration="103.00" routeLength="1030.60" waitingTime="1.00" waitingCount="1" stopTime="0.00" timeLoss="13.49" rerouteNo="1" devices="tripinfo_SpaceShip195 routing_SpaceShip195" vType="DEFAULT_VEHTYPE" speedFactor="0.84" vaporized=""/>
    <tripinfo id="SpaceShip213" depart="57.00" departLane="F4E4_0" departPos="5.10" departSpeed="0.00" departDelay="0.00" arrival="108.00" arrivalLane="B7C7_0" arrivalPos="85.20" arrivalSpeed="14.19" duration="51.00" routeLength="673.78" waitingTime="0.00" waitingCount="0" stopTime="0.00" timeLoss="6.76" rerouteNo="1" devices="tripinfo_SpaceShip213 routing_SpaceShip213" vType="DEFAULT_VEHTYPE" speedFactor="1.10" vaporized=""/>
    <tripinfo id="SpaceShip102" depart="0.00" departLane="F8E8_0" departPos="5.10" departSpeed="0.00" departDelay="0.00" arrival="110.00" arrivalLane="I5_5_0" arrivalPos="85.19" arrivalSpeed="13.09" duration="110.00" routeLength="1377.12" waitingTime="0.00" waitingCount="0" stopTime="0.00" timeLoss="7.11" rerouteNo="1" devices="tripinfo_SpaceShip102 routing_SpaceShip102" vType="DEFAULT_VEHTYPE" speedFactor="0.97" vaporized=""/>
    <tripinfo id="SpaceShip78" depart="3.00" departLane="G9F9_0" departPos="5.10" departSpeed="0.00" departDelay="3.00" arrival="113.00" arrivalLane="K2L2_0" arrivalPos="85.19" arrivalSpeed="12.90" duration="110.00" routeLength="1354.65" waitingTime="0.00" waitingCount="0" stopTime="0.00" timeLoss="11.74" rerouteNo="1" devices="tripinfo_SpaceShip78 routing_SpaceShip78" vType="DEFAULT_VEHTYPE" speedFactor="1.01" vaporized=""/>
    <tripinfo id="SpaceShip174" depart="3.00" departLane="N8M8_0" departPos="5.10" departSpeed="0.00" departDelay="3.00" arrival="113.00" arrivalLane="C9D9_0" arrivalPos="85.19" arrivalSpeed="12.95" duration="110.00" routeLength="1307.12" waitingTime="0.00" waitingCount="0" stopTime="0.00" timeLoss="10.74" rerouteNo="1" devices="tripinfo_SpaceShip174 routing_SpaceShip174" vType="DEFAULT_VEHTYPE" speedFactor="0.96" vaporized=""/>
    <tripinfo id="SpaceShip189" depart="57.00" departLane="A1B1_0" departPos="5.10" departSpeed="0.00" departDelay="57.00" arrival="117.00" arrivalLane="E8F8_0" arrivalPos="85.19" arrivalSpeed="12.80" duration="60.00" routeLength="600.66" waitingTime="0.00" waitingCount="0" stopTime="0.00" timeLoss="13.99" rerouteNo="1" devices="tripinfo_SpaceShip189 routing_SpaceShip189" vType="DEFAULT_VEHTYPE" speedFactor="0.97" vaporized=""/>
    <tripinfo id="SpaceShip103" depart="3.00" departLane="N1M1_0" departPos="5.10" departSpeed="0.00" departDelay="3.00" arrival="119.00" arrivalLane="F9G9_0" arrivalPos="85.19" arrivalSpeed="12.20" duration="116.00" routeLength="1220.18" waitingTime="1.00" waitingCount="1" stopTime="0.00" timeLoss="22.34" rerouteNo="1" devices="tripinfo_SpaceShip103 routing_SpaceShip103" vType="DEFAULT_VEHTYPE" speedFactor="0.95" vaporized=""/>
    <tripinfo id="SpaceShip207" depart="47.00" departLane="C8B8_0" departPos="5.10" departSpeed="0.00" departDelay="0.00" arrival="119.00" arrivalLane="G2H2_0" arrivalPos="85.19" arrivalSpeed="13.46" duration="72.00" routeLength="873.77" waitingTime="0.00" waitingCount="0" stopTime="0.00" timeLoss="6.10" rerouteNo="1" devices="tripinfo_SpaceShip207 routing_SpaceShip207" vType="DEFAULT_VEHTYPE" speedFactor="0.97" vaporized=""/>
    <tripinfo id="SpaceShip3" depart="0.00" departLane="P7O7_0" departPos="5.10" departSpeed="0.00" departDelay="0.00" arrival="122.00" arrivalLane="T8U8_0" arrivalPos="85.19" arrivalSpeed="14.12" duration="122.00" routeLength="1627.97" waitingTime="0.00" waitingCount="0" stopTime="0.00" timeLoss="11.79" rerouteNo="1" devices="tripinfo_SpaceShip3 routing_SpaceShip3" vType="DEFAULT_VEHTYPE" speedFactor="1.08" vaporized=""/>
    <tripinfo id="SpaceShip100" depart="0.00" departLane="O6N6_0" departPos="5.10" departSpeed="0.00" departDelay="0.00" arrival="122.00" arrivalLane="C2D2_0" arrivalPos="85.19" arrivalSpeed="14.32" duration="122.00" routeLength="1677.97" waitingTime="0.00" waitingCount="0" stopTime="0.00" timeLoss="8.17" rerouteNo="1" devices="tripinfo_SpaceShip100 routing_SpaceShip100" vType="DEFAULT_VEHTYPE" speedFactor="1.07" vaporized=""/>
    <tripinfo id="SpaceShip180" depart="0.00" departLane="S1R1_0" departPos="5.10" departSpeed="0.00" departDelay="0.00" arrival="123.00" arrivalLane="I9_9_0" arrivalPos="85.19" arrivalSpeed="14.49" duration="123.00" routeLength="1625.39" waitingTime="0.00" waitingCount="0" stopTime="0.00" timeLoss="14.95" rerouteNo="1" devices="tripinfo_SpaceShip180 routing_SpaceShip180" vType="DEFAULT_VEHTYPE" speedFactor="1.10" vaporized=""/>
    <tripinfo id="SpaceShip215" depart="63.00" departLane="C5B5_0" departPos="5.10" departSpeed="0.00" departDelay="2.00" arrival="123.00" arrivalLane="G4H4_0" arrivalPos="85.20" arrivalSpeed="14.73" duration="60.00" routeLength="746.58" waitingTime="0.00" waitingCount="0" stopTime="0.00" timeLoss="8.98" rerouteNo="1" devices="tripinfo_SpaceShip215 routing_SpaceShip215" vType="DEFAULT_VEHTYPE" speedFactor="1.09" vaporized=""/>
    <tripinfo id="SpaceShip21" depart="0.00" departLane="L3K3_0" departPos="5.10" departSpeed="0.00" departDelay="0.00" arrival="124.00" arrivalLane="R4S4_0" arrivalPos="85.20" arrivalSpeed="13.94" duration="124.00" routeLength="1554.37" waitingTime="0.00" waitingCount="0" stopTime="0.00" timeLoss="11.97" rerouteNo="1" devices="tripinfo_SpaceShip21 routing_SpaceShip21" vType="DEFAULT_VEHTYPE" speedFactor="1.01" vaporized=""/>
    <tripinfo id="SpaceShip116" depart="0.00" departLane="C4B4_0" departPos="5.10" departSpeed="0.00" departDelay="0.00" arrival="125.00" arrivalLane="R5S5_0" arrivalPos="85.19" arrivalSpeed="15.57" duration="125.00" routeLength="1838.69" waitingTime="0.00" waitingCount="0" stopTime="0.00" timeLoss="11.48" rerouteNo="1" devices="tripinfo_SpaceShip116 routing_SpaceShip116" vType="DEFAULT_VEHTYPE" speedFactor="1.18" vaporized=""/>
    <tripinfo id="SpaceShip31" depart="3.00" departLane="C2B2_0" departPos="5.10" departSpeed="0.00" departDelay="3.00" arrival="126.00" arrivalLane="P6{6_0" arrivalPos="85.19" arrivalSpeed="15.43" duration="123.00" routeLength="1776.86" waitingTime="0.00" waitingCount="0" stopTime="0.00" timeLoss="12.10" rerouteNo="1" devices="tripinfo_SpaceShip31 routing_SpaceShip31" vType="DEFAULT_VEHTYPE" speedFactor="1.15" vaporized=""/>
    <tripinfo id="SpaceShip92" depart="0.00" departLane="O5N5_0" departPos="5.10" departSpeed="0.00" departDelay="0.00" arrival="127.00" arrivalLane="F4G4_0" arrivalPos="85.19" arrivalSpeed="11.48" duration="127.00" routeLength="1320.17" waitingTime="0.00" waitingCount="0" stopTime="0.00" timeLoss="11.42" rerouteNo="1" devices="tripinfo_SpaceShip92 routing_SpaceShip92" vType="DEFAULT_VEHTYPE" speedFactor="0.83" vaporized=""/>
    <tripinfo id="SpaceShip104" depart="0.00" departLane="K8K7_0" departPos="5.10" departSpeed="0.00" departDelay="0.00" arrival="127.00" arrivalLane="E7F7_0" arrivalPos="85.19" arrivalSpeed="12.41" duration="127.00" routeLength="1345.99" waitingTime="1.00" waitingCount="1" stopTime="0.00" timeLoss="15.61" rerouteNo="1" devices="tripinfo_SpaceShip104 routing_SpaceShip104" vType="DEFAULT_VEHTYPE" speedFactor="0.89" vaporized=""/>
    <tripinfo id="SpaceShip171" depart="3.00" departLane="{8P8_0" departPos="5.10" departSpeed="0.00" departDelay="3.00" arrival="128.00" arrivalLane="R9S9_0" arrivalPos="85.19" arrivalSpeed="11.83" duration="125.00" routeLength="1396.36" waitingTime="0.00" waitingCount="0" stopTime="0.00" timeLoss="11.05" rerouteNo="1" devices="tripinfo_SpaceShip171 routing_SpaceShip171" vType="DEFAULT_VEHTYPE" speedFactor="0.90" vaporized=""/>
    <tripinfo id="SpaceShip57" depart="0.00" departLane="W5V5_0" departPos="5.10" departSpeed="0.00" departDelay="0.00" arrival="129.00" arrivalLane="N6O6_0" arrivalPos="85.19" arrivalSpeed="14.84" duration="129.00" routeLength="1859.55" waitingTime="0.00" waitingCount="0" stopTime="0.00" timeLoss="11.07" rerouteNo="1" devices="tripinfo_SpaceShip57 routing_SpaceShip57" vType="DEFAULT_VEHTYPE" speedFactor="1.14" vaporized=""/>
    <tripinfo id="SpaceShip145" depart="0.00" departLane="I8H8_0" departPos="5.10" departSpeed="0.00" departDelay="0.00" arrival="131.00" arrivalLane="T7U7_0" arrivalPos="85.19" arrivalSpeed="14.92" duration="131.00" routeLength="1857.02" waitingTime="0.00" waitingCount="0" stopTime="0.00" timeLoss="13.11" rerouteNo="1" devices="tripinfo_SpaceShip145 routing_SpaceShip145" vType="DEFAULT_VEHTYPE" speedFactor="1.14" vaporized=""/>
    <tripinfo id="SpaceShip0" depart="0.00" departLane="K4K3_0" departPos="5.10" departSpeed="0.00" departDelay="0.00" arrival="133.00" arrivalLane="A1B1_0" arrivalPos="78.64" arrivalSpeed="14.46" duration="133.00" routeLength="1748.88" waitingTime="0.00" waitingCount="0" stopTime="0.00" timeLoss="11.91" rerouteNo="1" devices="tripinfo_SpaceShip0 routing_SpaceShip0" vType="DEFAULT_VEHTYPE" speedFactor="1.06" vaporized=""/>
    <tripinfo id="SpaceShip80" depart="0.00" departLane="E8D8_0" departPos="5.10" departSpeed="0.00" departDelay="0.00" arrival="133.00" arrivalLane="N3O3_0" arrivalPos="85.19" arrivalSpeed="14.24" duration="133.00" routeLength="1776.88" waitingTime="0.00" waitingCount="0" stopTime="0.00" timeLoss="9.21" rerouteNo="1" devices="tripinfo_SpaceShip80 routing_SpaceShip80" vType="DEFAULT_VEHTYPE" speedFactor="1.03" vaporized=""/>
    <tripinfo id="SpaceShip200" depart="18.00" departLane="B7A1_0" departPos="5.10" departSpeed="0.00" departDelay="0.00" arrival="133.00" arrivalLane="L1M1_0" arrivalPos="85.19" arrivalSpeed="12.52" duration="115.00" routeLength="1273.77" waitingTime="0.00" waitingCount="0" stopTime="0.00" timeLoss="17.19" rerouteNo="1" devices="tripinfo_SpaceShip200 routing_SpaceShip200" vType="DEFAULT_VEHTYPE" speedFactor="0.95" vaporized=""/>
    <tripinfo id="SpaceShip143" depart="0.00" departLane="L4K4_0" departPos="5.10" departSpeed="0.00" departDelay="0.00" arrival="134.00" arrivalLane="H1I1_0" arrivalPos="85.19" arrivalSpeed="14.85" duration="134.00" routeLength="1877.16" waitingTime="0.00" waitingCount="0" stopTime="0.00" timeLoss="13.47" rerouteNo="1" devices="tripinfo_SpaceShip143 routing_SpaceShip143" vType="DEFAULT_VEHTYPE" speedFactor="1.13" vaporized=""/>
    <tripinfo id="SpaceShip109" depart="41.00" departLane="A1B1_0" departPos="5.10" departSpeed="0.00" departDelay="41.00" arrival="135.00" arrivalLane="I6_6_0" arrivalPos="85.19" arrivalSpeed="13.04" duration="94.00" routeLength="1061.29" waitingTime="0.00" waitingCount="0" stopTime="0.00" timeLoss="13.19" rerouteNo="1" devices="tripinfo_SpaceShip109 routing_SpaceShip109" vType="DEFAULT_VEHTYPE" speedFactor="0.96" vaporized=""/>
    <tripinfo id="SpaceShip204" depart="60.00" departLane="A1B1_0" departPos="5.10" departSpeed="0.00" departDelay="25.00" arrival="135.00" arrivalLane="I9_9_0" arrivalPos="85.19" arrivalSpeed="13.67" duration="75.00" routeLength="934.10" waitingTime="0.00" waitingCount="0" stopTime="0.00" timeLoss="10.29" rerouteNo="1" devices="tripinfo_SpaceShip204 routing_SpaceShip204" vType="DEFAULT_VEHTYPE" speedFactor="1.07" vaporized=""/>
    <tripinfo id="SpaceShip138" depart="0.00" departLane="M1L1_0" departPos="5.10" departSpeed="0.00" departDelay="0.00" arrival="136.00" arrivalLane="H3I3_0" arrivalPos="85.20" arrivalSpeed="13.46" duration="136.00" routeLength="1528.27" waitingTime="9.00" waitingCount="1" stopTime="0.00" timeLoss="25.30" rerouteNo="1" devices="tripinfo_SpaceShip138 routing_SpaceShip138" vType="DEFAULT_VEHTYPE" speedFactor="1.00" vaporized=""/>
    <tripinfo id="SpaceShip144" depart="0.00" departLane="M4L4_0" departPos="5.10" departSpeed="0.00" departDelay="0.00" arrival="137.00" arrivalLane="A1B5_0" arrivalPos="78.64" arrivalSpeed="9.90" duration="137.00" routeLength="1262.27" waitingTime="0.00" waitingCount="0" stopTime="0.00" timeLoss="11.72" rerouteNo="1" devices="tripinfo_SpaceShip144 routing_SpaceShip144" vType="DEFAULT_VEHTYPE" speedFactor="0.73" vaporized=""/>
    <tripinfo id="SpaceShip45" depart="0.00" departLane="I5H5_0" departPos="5.10" departSpeed="0.00" departDelay="0.00" arrival="138.00" arrivalLane="M3N3_0" arrivalPos="85.19" arrivalSpeed="14.20" duration="138.00" routeLength="1633.98" waitingTime="11.00" waitingCount="1" stopTime="0.00" timeLoss="28.99" rerouteNo="1" devices="tripinfo_SpaceShip45 routing_SpaceShip45" vType="DEFAULT_VEHTYPE" speedFactor="1.09" vaporized=""/>
    <tripinfo id="SpaceShip83" depart="0.00" departLane="W6V6_0" departPos="5.10" departSpeed="0.00" departDelay="0.00" arrival="138.00" arrivalLane="T7U7_0" arrivalPos="85.19" arrivalSpeed="12.24" duration="138.00" routeLength="1669.97" waitingTime="0.00" waitingCount="0" stopTime="0.00" timeLoss="12.55" rerouteNo="1" devices="tripinfo_SpaceShip83 routing_SpaceShip83" vType="DEFAULT_VEHTYPE" speedFactor="0.97" vaporized=""/>
    <tripinfo id="SpaceShip89" depart="0.00" departLane="U2T2_0" departPos="5.10" departSpeed="0.00" departDelay="0.00" arrival="138.00" arrivalLane="K1L1_0" arrivalPos="85.19" arrivalSpeed="13.03" duration="138.00" routeLength="1762.18" waitingTime="0.00" waitingCount="0" stopTime="0.00" timeLoss="12.60" rerouteNo="1" devices="tripinfo_SpaceShip89 routing_SpaceShip89" vType="DEFAULT_VEHTYPE" speedFactor="1.02" vaporized=""/>