<?xml version="1.0" encoding="UTF-8"?>

<!-- generated on 2022-03-18 13:59:51 by Eclipse SUMO sumo Version 1.9.2
<configuration xmlns:xsi="http://www.w3.org/2001/XMLSchema-instance" xsi:noNamespaceSchemaLocation="http://sumo.dlr.de/xsd/sumoConfiguration.xsd">

    <input>
        <net-file value="spiderverse.net.xml"/>
    </input>

    <output>
        <tripinfo-output value="output2.xml"/>
    </output>

    <traci_server>
        <remote-port value="65053"/>
    </traci_server>

</configuration>
-->

<tripinfos xmlns:xsi="http://www.w3.org/2001/XMLSchema-instance" xsi:noNamespaceSchemaLocation="http://sumo.dlr.de/xsd/tripinfo_file.xsd">
    <tripinfo id="SpaceShip25" depart="0.00" departLane="C7B7_0" departPos="5.10" departSpeed="0.00" departDelay="0.00" arrival="36.00" arrivalLane="B1C1_0" arrivalPos="85.19" arrivalSpeed="11.03" duration="36.00" routeLength="373.78" waitingTime="0.00" waitingCount="0" stopTime="0.00" timeLoss="4.63" rerouteNo="1" devices="tripinfo_SpaceShip25 routing_SpaceShip25" vType="DEFAULT_VEHTYPE" speedFactor="0.87" vaporized=""/>
    <tripinfo id="SpaceShip22" depart="0.00" departLane="D9C9_0" departPos="5.10" departSpeed="0.00" departDelay="0.00" arrival="38.00" arrivalLane="B1A1_0" arrivalPos="78.64" arrivalSpeed="12.25" duration="38.00" routeLength="336.80" waitingTime="1.00" waitingCount="1" stopTime="0.00" timeLoss="11.08" rerouteNo="1" devices="tripinfo_SpaceShip22 routing_SpaceShip22" vType="DEFAULT_VEHTYPE" speedFactor="0.98" vaporized=""/>
    <tripinfo id="SpaceShip24" depart="0.00" departLane="C8B8_0" departPos="5.10" departSpeed="0.00" departDelay="0.00" arrival="47.00" arrivalLane="C4D4_0" arrivalPos="85.20" arrivalSpeed="11.35" duration="47.00" routeLength="477.99" waitingTime="0.00" waitingCount="0" stopTime="0.00" timeLoss="4.72" rerouteNo="1" devices="tripinfo_SpaceShip24 routing_SpaceShip24" vType="DEFAULT_VEHTYPE" speedFactor="0.83" vaporized=""/>
    <tripinfo id="SpaceShip23" depart="0.00" departLane="C4B4_0" departPos="5.10" departSpeed="0.00" departDelay="0.00" arrival="54.00" arrivalLane="E3F3_0" arrivalPos="85.19" arrivalSpeed="11.75" duration="54.00" routeLength="546.57" waitingTime="0.00" waitingCount="0" stopTime="0.00" timeLoss="8.51" rerouteNo="1" devices="tripinfo_SpaceShip23 routing_SpaceShip23" vType="DEFAULT_VEHTYPE" speedFactor="0.89" vaporized=""/>
    <tripinfo id="SpaceShip11" depart="0.00" departLane="_5I5_0" departPos="5.10" departSpeed="0.00" departDelay="0.00" arrival="70.00" arrivalLane="E6F6_0" arrivalPos="85.18" arrivalSpeed="13.38" duration="70.00" routeLength="843.90" waitingTime="0.00" waitingCount="0" stopTime="0.00" timeLoss="9.57" rerouteNo="1" devices="tripinfo_SpaceShip11 routing_SpaceShip11" vType="DEFAULT_VEHTYPE" speedFactor="1.03" vaporized=""/>
    <tripinfo id="SpaceShip8" depart="0.00" departLane="A1B1_0" departPos="5.10" departSpeed="0.00" departDelay="0.00" arrival="75.00" arrivalLane="H2I2_0" arrivalPos="85.19" arrivalSpeed="12.11" duration="75.00" routeLength="836.81" waitingTime="0.00" waitingCount="0" stopTime="0.00" timeLoss="9.38" rerouteNo="1" devices="tripinfo_SpaceShip8 routing_SpaceShip8" vType="DEFAULT_VEHTYPE" speedFactor="0.94" vaporized=""/>
    <tripinfo id="SpaceShip14" depart="0.00" departLane="C2B2_0" departPos="5.10" departSpeed="0.00" departDelay="0.00" arrival="78.00" arrivalLane="I3_3_0" arrivalPos="85.19" arrivalSpeed="13.62" duration="78.00" routeLength="938.71" waitingTime="0.00" waitingCount="0" stopTime="0.00" timeLoss="8.67" rerouteNo="1" devices="tripinfo_SpaceShip14 routing_SpaceShip14" vType="DEFAULT_VEHTYPE" speedFactor="0.99" vaporized=""/>
    <tripinfo id="SpaceShip19" depart="0.00" departLane="L4K4_0" departPos="5.10" departSpeed="0.00" departDelay="0.00" arrival="90.00" arrivalLane="O3P3_0" arrivalPos="85.19" arrivalSpeed="15.11" duration="90.00" routeLength="1262.21" waitingTime="0.00" waitingCount="0" stopTime="0.00" timeLoss="10.36" rerouteNo="1" devices="tripinfo_SpaceShip19 routing_SpaceShip19" vType="DEFAULT_VEHTYPE" speedFactor="1.16" vaporized=""/>
    <tripinfo id="SpaceShip29" depart="55.00" departLane="F3E3_0" departPos="5.10" departSpeed="0.00" departDelay="0.00" arrival="107.00" arrivalLane="A1B5_0" arrivalPos="78.64" arrivalSpeed="12.06" duration="52.00" routeLength="568.87" waitingTime="0.00" waitingCount="0" stopTime="0.00" timeLoss="5.94" rerouteNo="1" devices="tripinfo_SpaceShip29 routing_SpaceShip29" vType="DEFAULT_VEHTYPE" speedFactor="0.93" vaporized=""/>
    <tripinfo id="SpaceShip6" depart="0.00" departLane="U5T5_0" departPos="5.10" departSpeed="0.00" departDelay="0.00" arrival="113.00" arrivalLane="T6U6_0" arrivalPos="85.19" arrivalSpeed="13.96" duration="113.00" routeLength="1469.98" waitingTime="0.00" waitingCount="0" stopTime="0.00" timeLoss="10.43" rerouteNo="1" devices="tripinfo_SpaceShip6 routing_SpaceShip6" vType="DEFAULT_VEHTYPE" speedFactor="1.05" vaporized=""/>
    <tripinfo id="SpaceShip13" depart="0.00" departLane="H5G5_0" departPos="5.10" departSpeed="0.00" departDelay="0.00" arrival="118.00" arrivalLane="M3N3_0" arrivalPos="85.19" arrivalSpeed="15.31" duration="118.00" routeLength="1597.17" waitingTime="0.00" waitingCount="0" stopTime="0.00" timeLoss="14.41" rerouteNo="1" devices="tripinfo_SpaceShip13 routing_SpaceShip13" vType="DEFAULT_VEHTYPE" speedFactor="1.12" vaporized=""/>
    <tripinfo id="SpaceShip30" depart="71.00" departLane="F6E6_0" departPos="5.10" departSpeed="0.00" departDelay="0.00" arrival="121.00" arrivalLane="B1A1_0" arrivalPos="78.64" arrivalSpeed="15.56" duration="50.00" routeLength="660.18" waitingTime="0.00" waitingCount="0" stopTime="0.00" timeLoss="8.78" rerouteNo="1" devices="tripinfo_SpaceShip30 routing_SpaceShip30" vType="DEFAULT_VEHTYPE" speedFactor="1.18" vaporized=""/>
    <tripinfo id="SpaceShip4" depart="0.00" departLane="W6V6_0" departPos="5.10" departSpeed="0.00" departDelay="0.00" arrival="131.00" arrivalLane="T5U5_0" arrivalPos="85.19" arrivalSpeed="13.36" duration="131.00" routeLength="1677.84" waitingTime="0.00" waitingCount="0" stopTime="0.00" timeLoss="12.82" rerouteNo="1" devices="tripinfo_SpaceShip4 routing_SpaceShip4" vType="DEFAULT_VEHTYPE" speedFactor="1.03" vaporized=""/>
    <tripinfo id="SpaceShip16" depart="0.00" departLane="O7N7_0" departPos="5.10" departSpeed="0.00" departDelay="0.00" arrival="132.00" arrivalLane="R8S8_0" arrivalPos="85.19" arrivalSpeed="12.15" duration="132.00" routeLength="1459.56" waitingTime="0.00" waitingCount="0" stopTime="0.00" timeLoss="11.54" rerouteNo="1" devices="tripinfo_SpaceShip16 routing_SpaceShip16" vType="DEFAULT_VEHTYPE" speedFactor="0.88" vaporized=""/>
    <tripinfo id="SpaceShip2" depart="0.00" departLane="X1W1_0" departPos="5.10" departSpeed="0.00" departDelay="0.00" arrival="140.00" arrivalLane="X2Y2_0" arrivalPos="85.19" arrivalSpeed="13.25" duration="140.00" routeLength="1775.19" waitingTime="0.00" waitingCount="0" stopTime="0.00" timeLoss="11.86" rerouteNo="1" devices="tripinfo_SpaceShip2 routing_SpaceShip2" vType="DEFAULT_VEHTYPE" speedFactor="1.01" vaporized=""/>
    <tripinfo id="SpaceShip1" depart="0.00" departLane="R2R1_0" departPos="5.10" departSpeed="0.00" departDelay="0.00" arrival="146.00" arrivalLane="W1X1_0" arrivalPos="85.19" arrivalSpeed="12.27" duration="146.00" routeLength="1740.83" waitingTime="0.00" waitingCount="0" stopTime="0.00" timeLoss="11.12" rerouteNo="1" devices="tripinfo_SpaceShip1 routing_SpaceShip1" vType="DEFAULT_VEHTYPE" speedFactor="0.94" vaporized=""/>
    <tripinfo id="SpaceShip17" depart="0.00" departLane="K9K1_0" departPos="5.10" departSpeed="0.00" departDelay="0.00" arrival="147.00" arrivalLane="U1V1_0" arrivalPos="85.19" arrivalSpeed="11.96" duration="147.00" routeLength="1758.07" waitingTime="0.00" waitingCount="0" stopTime="0.00" timeLoss="11.21" rerouteNo="1" devices="tripinfo_SpaceShip17 routing_SpaceShip17" vType="DEFAULT_VEHTYPE" speedFactor="0.94" vaporized=""/>
    <tripinfo id="SpaceShip12" depart="3.00" departLane="{5P5_0" departPos="5.10" departSpeed="0.00" departDelay="3.00" arrival="148.00" arrivalLane="B8C8_0" arrivalPos="85.19" arrivalSpeed="13.38" duration="145.00" routeLength="1773.76" waitingTime="0.00" waitingCount="0" stopTime="0.00" timeLoss="21.98" rerouteNo="1" devices="tripinfo_SpaceShip12 routing_SpaceShip12" vType="DEFAULT_VEHTYPE" speedFactor="1.05" vaporized=""/>
    <tripinfo id="SpaceShip20" depart="0.00" departLane="I1H1_0" departPos="5.10" departSpeed="0.00" departDelay="0.00" arrival="148.00" arrivalLane="K5L5_0" arrivalPos="85.19" arrivalSpeed="13.76" duration="148.00" routeLength="1876.86" waitingTime="0.00" waitingCount="0" stopTime="0.00" timeLoss="14.54" rerouteNo="1" devices="tripinfo_SpaceShip20 routing_SpaceShip20" vType="DEFAULT_VEHTYPE" speedFactor="1.02" vaporized=""/>
    <tripinfo id="SpaceShip27" depart="39.00" departLane="A1B1_0" departPos="5.10" departSpeed="0.00" departDelay="0.00" arrival="159.00" arrivalLane="M8N8_0" arrivalPos="85.19" arrivalSpeed="12.95" duration="120.00" routeLength="1400.67" waitingTime="0.00" waitingCount="0" stopTime="0.00" timeLoss="12.49" rerouteNo="1" devices="tripinfo_SpaceShip27 routing_SpaceShip27" vType="DEFAULT_VEHTYPE" speedFactor="0.95" vaporized=""/>
    <tripinfo id="SpaceShip32" depart="79.00" departLane="_3I3_0" departPos="5.10" departSpeed="0.00" departDelay="0.00" arrival="164.00" arrivalLane="B7C7_0" arrivalPos="85.20" arrivalSpeed="13.60" duration="85.00" routeLength="1076.89" waitingTime="0.00" waitingCount="0" stopTime="0.00" timeLoss="7.16" rerouteNo="1" devices="tripinfo_SpaceShip32 routing_SpaceShip32" vType="DEFAULT_VEHTYPE" speedFactor="1.01" vaporized=""/>
    <tripinfo id="SpaceShip21" depart="0.00" departLane="V9U9_0" departPos="5.10" departSpeed="0.00" departDelay="0.00" arrival="166.00" arrivalLane="B1A1_0" arrivalPos="78.64" arrivalSpeed="13.24" duration="166.00" routeLength="2136.78" waitingTime="0.00" waitingCount="0" stopTime="0.00" timeLoss="11.75" rerouteNo="1" devices="tripinfo_SpaceShip21 routing_SpaceShip21" vType="DEFAULT_VEHTYPE" speedFactor="1.01" vaporized=""/>
    <tripinfo id="SpaceShip7" depart="0.00" departLane="{5P5_0" departPos="5.10" departSpeed="0.00" departDelay="0.00" arrival="169.00" arrivalLane="G3H3_0" arrivalPos="85.19" arrivalSpeed="11.40" duration="169.00" routeLength="1897.16" waitingTime="0.00" waitingCount="0" stopTime="0.00" timeLoss="13.62" rerouteNo="1" devices="tripinfo_SpaceShip7 routing_SpaceShip7" vType="DEFAULT_VEHTYPE" speedFactor="0.89" vaporized=""/>
    <tripinfo id="SpaceShip15" depart="0.00" departLane="L7K7_0" departPos="5.10" departSpeed="0.00" departDelay="0.00" arrival="181.00" arrivalLane="K2L2_0" arrivalPos="85.19" arrivalSpeed="12.78" duration="181.00" routeLength="2176.90" waitingTime="0.00" waitingCount="0" stopTime="0.00" timeLoss="11.91" rerouteNo="1" devices="tripinfo_SpaceShip15 routing_SpaceShip15" vType="DEFAULT_VEHTYPE" speedFactor="0.93" vaporized=""/>
    <tripinfo id="SpaceShip28" depart="48.00" departLane="D4C4_0" departPos="5.10" departSpeed="0.00" departDelay="0.00" arrival="185.00" arrivalLane="P6{6_0" arrivalPos="85.19" arrivalSpeed="14.88" duration="137.00" routeLength="1744.22" waitingTime="7.00" waitingCount="1" stopTime="0.00" timeLoss="24.76" rerouteNo="1" devices="tripinfo_SpaceShip28 routing_SpaceShip28" vType="DEFAULT_VEHTYPE" speedFactor="1.13" vaporized=""/>
    <tripinfo id="SpaceShip33" depart="91.00" departLane="P3O3_0" departPos="5.10" departSpeed="0.00" departDelay="0.00" arrival="198.00" arrivalLane="E2F2_0" arrivalPos="85.19" arrivalSpeed="16.08" duration="107.00" routeLength="1451.79" waitingTime="0.00" waitingCount="0" stopTime="0.00" timeLoss="16.76" rerouteNo="1" devices="tripinfo_SpaceShip33 routing_SpaceShip33" vType="DEFAULT_VEHTYPE" speedFactor="1.17" vaporized=""/>
    <tripinfo id="SpaceShip26" depart="37.00" departLane="C1B1_0" departPos="5.10" departSpeed="0.00" departDelay="0.00" arrival="204.00" arrivalLane="R5S5_0" arrivalPos="85.19" arrivalSpeed="11.59" duration="167.00" routeLength="1976.86" waitingTime="0.00" waitingCount="0" stopTime="0.00" timeLoss="11.42" rerouteNo="1" devices="tripinfo_SpaceShip26 routing_SpaceShip26" vType="DEFAULT_VEHTYPE" speedFactor="0.92" vaporized=""/>
    <tripinfo id="SpaceShip3" depart="0.00" departLane="}7Y7_0" departPos="5.10" departSpeed="0.00" departDelay="0.00" arrival="210.00" arrivalLane="E4F4_0" arrivalPos="85.19" arrivalSpeed="13.85" duration="210.00" routeLength="2977.19" waitingTime="0.00" waitingCount="0" stopTime="0.00" timeLoss="11.53" rerouteNo="1" devices="tripinfo_SpaceShip3 routing_SpaceShip3" vType="DEFAULT_VEHTYPE" speedFactor="1.08" vaporized=""/>
    <tripinfo id="SpaceShip5" depart="0.00" departLane="C6B6_0" departPos="5.10" departSpeed="0.00" departDelay="0.00" arrival="221.00" arrivalLane="V3W3_0" arrivalPos="85.19" arrivalSpeed="10.79" duration="221.00" routeLength="2377.15" waitingTime="0.00" waitingCount="0" stopTime="0.00" timeLoss="14.60" rerouteNo="1" devices="tripinfo_SpaceShip5 routing_SpaceShip5" vType="DEFAULT_VEHTYPE" speedFactor="0.83" vaporized=""/>
    <tripinfo id="SpaceShip37" depart="122.00" departLane="A1B1_0" departPos="5.10" departSpeed="0.00" departDelay="0.00" arrival="228.00" arrivalLane="N8O8_0" arrivalPos="85.19" arrivalSpeed="15.26" duration="106.00" routeLength="1500.67" waitingTime="0.00" waitingCount="0" stopTime="0.00" timeLoss="13.55" rerouteNo="1" devices="tripinfo_SpaceShip37 routing_SpaceShip37" vType="DEFAULT_VEHTYPE" speedFactor="1.18" vaporized=""/>
    <tripinfo id="SpaceShip47" depart="167.00" departLane="A1B1_0" departPos="5.10" departSpeed="0.00" departDelay="0.00" arrival="230.00" arrivalLane="E7F7_0" arrivalPos="85.19" arrivalSpeed="12.25" duration="63.00" routeLength="660.46" waitingTime="0.00" waitingCount="0" stopTime="0.00" timeLoss="8.63" rerouteNo="1" devices="tripinfo_SpaceShip47 routing_SpaceShip47" vType="DEFAULT_VEHTYPE" speedFactor="0.90" vaporized=""/>
    <tripinfo id="SpaceShip0" depart="0.00" departLane="X3W3_0" departPos="5.10" departSpeed="0.00" departDelay="0.00" arrival="244.00" arrivalLane="K5K6_0" arrivalPos="666.90" arrivalSpeed="13.78" duration="244.00" routeLength="3326.77" waitingTime="0.00" waitingCount="0" stopTime="0.00" timeLoss="17.25" rerouteNo="1" devices="tripinfo_SpaceShip0 routing_SpaceShip0" vType="DEFAULT_VEHTYPE" speedFactor="1.06" vaporized=""/>
    <tripinfo id="SpaceShip31" depart="76.00" departLane="I2H2_0" departPos="5.10" departSpeed="0.00" departDelay="0.00" arrival="244.00" arrivalLane="U4V4_0" arrivalPos="85.19" arrivalSpeed="15.26" duration="168.00" routeLength="2428.29" waitingTime="0.00" waitingCount="0" stopTime="0.00" timeLoss="15.08" rerouteNo="1" devices="tripinfo_SpaceShip31 routing_SpaceShip31" vType="DEFAULT_VEHTYPE" speedFactor="1.15" vaporized=""/>
    <tripinfo id="SpaceShip35" depart="114.00" departLane="U6T6_0" departPos="5.10" departSpeed="0.00" departDelay="0.00" arrival="248.00" arrivalLane="O5P5_0" arrivalPos="85.19" arrivalSpeed="13.33" duration="134.00" routeLength="1635.81" waitingTime="1.00" waitingCount="1" stopTime="0.00" timeLoss="17.68" rerouteNo="1" devices="tripinfo_SpaceShip35 routing_SpaceShip35" vType="DEFAULT_VEHTYPE" speedFactor="1.02" vaporized=""/>
    <tripinfo id="SpaceShip53" depart="211.00" departLane="F4E4_0" departPos="5.10" departSpeed="0.00" departDelay="0.00" arrival="255.00" arrivalLane="B5C5_0" arrivalPos="85.19" arrivalSpeed="14.65" duration="44.00" routeLength="538.71" waitingTime="0.00" waitingCount="0" stopTime="0.00" timeLoss="7.12" rerouteNo="1" devices="tripinfo_SpaceShip53 routing_SpaceShip53" vType="DEFAULT_VEHTYPE" speedFactor="1.10" vaporized=""/>
    <tripinfo id="SpaceShip39" depart="133.00" departLane="S8R8_0" departPos="5.10" departSpeed="0.00" departDelay="0.00" arrival="257.00" arrivalLane="P9{9_0" arrivalPos="85.19" arrivalSpeed="12.43" duration="124.00" routeLength="1396.36" waitingTime="0.00" waitingCount="0" stopTime="0.00" timeLoss="11.10" rerouteNo="1" devices="tripinfo_SpaceShip39 routing_SpaceShip39" vType="DEFAULT_VEHTYPE" speedFactor="0.90" vaporized=""/>
    <tripinfo id="SpaceShip36" depart="119.00" departLane="N3M3_0" departPos="5.10" departSpeed="0.00" departDelay="0.00" arrival="271.00" arrivalLane="M1N1_0" arrivalPos="85.19" arrivalSpeed="13.44" duration="152.00" routeLength="1818.00" waitingTime="0.00" waitingCount="0" stopTime="0.00" timeLoss="16.24" rerouteNo="1" devices="tripinfo_SpaceShip36 routing_SpaceShip36" vType="DEFAULT_VEHTYPE" speedFactor="0.97" vaporized=""/>
    <tripinfo id="SpaceShip10" depart="3.00" departLane="W6V6_0" departPos="5.10" departSpeed="0.00" departDelay="3.00" arrival="278.00" arrivalLane="K2K3_0" arrivalPos="666.90" arrivalSpeed="14.85" duration="275.00" routeLength="3860.60" waitingTime="0.00" waitingCount="0" stopTime="0.00" timeLoss="19.02" rerouteNo="1" devices="tripinfo_SpaceShip10 routing_SpaceShip10" vType="DEFAULT_VEHTYPE" speedFactor="1.09" vaporized=""/>
    <tripinfo id="SpaceShip18" depart="0.00" departLane="M7L7_0" departPos="5.10" departSpeed="0.00" departDelay="0.00" arrival="281.00" arrivalLane="R5R6_0" arrivalPos="1145.72" arrivalSpeed="12.44" duration="281.00" routeLength="3342.65" waitingTime="0.00" waitingCount="0" stopTime="0.00" timeLoss="21.39" rerouteNo="1" devices="tripinfo_SpaceShip18 routing_SpaceShip18" vType="DEFAULT_VEHTYPE" speedFactor="0.94" vaporized=""/>
    <tripinfo id="SpaceShip51" depart="199.00" departLane="F2E2_0" departPos="5.10" departSpeed="0.00" departDelay="0.00" arrival="285.00" arrivalLane="H5I5_0" arrivalPos="85.19" arrivalSpeed="15.34" duration="86.00" routeLength="1273.76" waitingTime="0.00" waitingCount="0" stopTime="0.00" timeLoss="7.23" rerouteNo="1" devices="tripinfo_SpaceShip51 routing_SpaceShip51" vType="DEFAULT_VEHTYPE" speedFactor="1.17" vaporized=""/>
    <tripinfo id="SpaceShip46" depart="165.00" departLane="C7B7_0" departPos="5.10" departSpeed="0.00" departDelay="0.00" arrival="288.00" arrivalLane="N1O1_0" arrivalPos="85.19" arrivalSpeed="13.60" duration="123.00" routeLength="1573.78" waitingTime="0.00" waitingCount="0" stopTime="0.00" timeLoss="8.43" rerouteNo="1" devices="tripinfo_SpaceShip46 routing_SpaceShip46" vType="DEFAULT_VEHTYPE" speedFactor="1.00" vaporized=""/>
    <tripinfo id="SpaceShip34" depart="108.00" departLane="B5A1_0" departPos="5.10" departSpeed="0.00" departDelay="0.00" arrival="293.00" arrivalLane="W2X2_0" arrivalPos="85.19" arrivalSpeed="13.47" duration="185.00" routeLength="2377.11" waitingTime="0.00" waitingCount="0" stopTime="0.00" timeLoss="11.96" rerouteNo="1" devices="tripinfo_SpaceShip34 routing_SpaceShip34" vType="DEFAULT_VEHTYPE" speedFactor="0.99" vaporized=""/>
    <tripinfo id="SpaceShip42" depart="148.00" departLane="V1U1_0" departPos="5.10" departSpeed="0.00" departDelay="0.00" arrival="303.00" arrivalLane="A1B3_0" arrivalPos="78.64" arrivalSpeed="14.11" duration="155.00" routeLength="2168.87" waitingTime="0.00" waitingCount="0" stopTime="0.00" timeLoss="11.02" rerouteNo="1" devices="tripinfo_SpaceShip42 routing_SpaceShip42" vType="DEFAULT_VEHTYPE" speedFactor="1.09" vaporized=""/>
    <tripinfo id="SpaceShip38" depart="132.00" departLane="U5T5_0" departPos="5.10" departSpeed="0.00" departDelay="0.00" arrival="319.00" arrivalLane="O3P3_0" arrivalPos="85.19" arrivalSpeed="15.28" duration="187.00" routeLength="2591.61" waitingTime="0.00" waitingCount="0" stopTime="0.00" timeLoss="16.09" rerouteNo="1" devices="tripinfo_SpaceShip38 routing_SpaceShip38" vType="DEFAULT_VEHTYPE" speedFactor="1.10" vaporized=""/>
    <tripinfo id="SpaceShip41" depart="147.00" departLane="X1W1_0" departPos="5.10" departSpeed="0.00" departDelay="0.00" arrival="330.00" arrivalLane="B1A1_0" arrivalPos="78.64" arrivalSpeed="12.02" duration="183.00" routeLength="2273.54" waitingTime="0.00" waitingCount="0" stopTime="0.00" timeLoss="11.85" rerouteNo="1" devices="tripinfo_SpaceShip41 routing_SpaceShip41" vType="DEFAULT_VEHTYPE" speedFactor="0.96" vaporized=""/>
    <tripinfo id="SpaceShip43" depart="149.00" departLane="C8B8_0" departPos="5.10" departSpeed="0.00" departDelay="0.00" arrival="333.00" arrivalLane="W2X2_0" arrivalPos="85.19" arrivalSpeed="13.40" duration="184.00" routeLength="2473.75" waitingTime="0.00" waitingCount="0" stopTime="0.00" timeLoss="11.38" rerouteNo="1" devices="tripinfo_SpaceShip43 routing_SpaceShip43" vType="DEFAULT_VEHTYPE" speedFactor="1.04" vaporized=""/>
    <tripinfo id="SpaceShip45" depart="160.00" departLane="N8M8_0" departPos="5.10" departSpeed="0.00" departDelay="0.00" arrival="336.00" arrivalLane="L2M2_0" arrivalPos="85.18" arrivalSpeed="14.03" duration="176.00" routeLength="2473.77" waitingTime="0.00" waitingCount="0" stopTime="0.00" timeLoss="11.40" rerouteNo="1" devices="tripinfo_SpaceShip45 routing_SpaceShip45" vType="DEFAULT_VEHTYPE" speedFactor="1.09" vaporized=""/>
    <tripinfo id="SpaceShip48" depart="170.00" departLane="H3G3_0" departPos="5.10" departSpeed="0.00" departDelay="0.00" arrival="336.00" arrivalLane="L9M9_0" arrivalPos="85.19" arrivalSpeed="11.65" duration="166.00" routeLength="1877.12" waitingTime="0.00" waitingCount="0" stopTime="0.00" timeLoss="11.74" rerouteNo="1" devices="tripinfo_SpaceShip48 routing_SpaceShip48" vType="DEFAULT_VEHTYPE" speedFactor="0.88" vaporized=""/>
    <tripinfo id="SpaceShip50" depart="186.00" departLane="{6P6_0" departPos="5.10" departSpeed="0.00" departDelay="0.00" arrival="348.00" arrivalLane="B1A1_0" arrivalPos="78.64" arrivalSpeed="10.98" duration="162.00" routeLength="1760.18" waitingTime="0.00" waitingCount="0" stopTime="0.00" timeLoss="13.18" rerouteNo="1" devices="tripinfo_SpaceShip50 routing_SpaceShip50" vType="DEFAULT_VEHTYPE" speedFactor="0.85" vaporized=""/>
    <tripinfo id="SpaceShip55" depart="229.00" departLane="O8N8_0" departPos="5.10" departSpeed="0.00" departDelay="0.00" arrival="354.00" arrivalLane="S9T9_0" arrivalPos="85.19" arrivalSpeed="13.24" duration="125.00" routeLength="1559.56" waitingTime="0.00" waitingCount="0" stopTime="0.00" timeLoss="11.30" rerouteNo="1" devices="tripinfo_SpaceShip55 routing_SpaceShip55" vType="DEFAULT_VEHTYPE" speedFactor="1.00" vaporized=""/>
    <tripinfo id="SpaceShip52" depart="205.00" departLane="S5R5_0" departPos="5.10" departSpeed="0.00" departDelay="0.00" arrival="356.00" arrivalLane="B2C2_0" arrivalPos="85.19" arrivalSpeed="13.65" duration="151.00" routeLength="1977.12" waitingTime="0.00" waitingCount="0" stopTime="0.00" timeLoss="10.07" rerouteNo="1" devices="tripinfo_SpaceShip52 routing_SpaceShip52" vType="DEFAULT_VEHTYPE" speedFactor="1.02" vaporized=""/>
    <tripinfo id="SpaceShip68" depart="304.00" departLane="B3A1_0" departPos="5.10" departSpeed="0.00" departDelay="0.00" arrival="356.00" arrivalLane="F6G6_0" arrivalPos="85.19" arrivalSpeed="14.41" duration="52.00" routeLength="673.76" waitingTime="0.00" waitingCount="0" stopTime="0.00" timeLoss="4.84" rerouteNo="1" devices="tripinfo_SpaceShip68 routing_SpaceShip68" vType="DEFAULT_VEHTYPE" speedFactor="1.04" vaporized=""/>
    <tripinfo id="SpaceShip61" depart="258.00" departLane="{9P9_0" departPos="5.10" departSpeed="0.00" departDelay="0.00" arrival="360.00" arrivalLane="R1S1_0" arrivalPos="85.19" arrivalSpeed="15.50" duration="102.00" routeLength="1396.36" waitingTime="0.00" waitingCount="0" stopTime="0.00" timeLoss="10.96" rerouteNo="1" devices="tripinfo_SpaceShip61 routing_SpaceShip61" vType="DEFAULT_VEHTYPE" speedFactor="1.12" vaporized=""/>
    <tripinfo id="SpaceShip62" depart="272.00" departLane="N1M1_0" departPos="5.10" departSpeed="0.00" departDelay="0.00" arrival="363.00" arrivalLane="N9O9_0" arrivalPos="85.19" arrivalSpeed="12.88" duration="91.00" routeLength="1099.01" waitingTime="0.00" waitingCount="0" stopTime="0.00" timeLoss="11.78" rerouteNo="1" devices="tripinfo_SpaceShip62 routing_SpaceShip62" vType="DEFAULT_VEHTYPE" speedFactor="1.02" vaporized=""/>
    <tripinfo id="SpaceShip44" depart="149.00" departLane="L5K5_0" departPos="5.10" departSpeed="0.00" departDelay="0.00" arrival="368.00" arrivalLane="S9T9_0" arrivalPos="85.19" arrivalSpeed="13.42" duration="219.00" routeLength="2976.85" waitingTime="0.00" waitingCount="0" stopTime="0.00" timeLoss="13.53" rerouteNo="1" devices="tripinfo_SpaceShip44 routing_SpaceShip44" vType="DEFAULT_VEHTYPE" speedFactor="1.04" vaporized=""/>
    <tripinfo id="SpaceShip40" depart="141.00" departLane="Y2X2_0" departPos="5.10" departSpeed="0.00" departDelay="0.00" arrival="369.00" arrivalLane="G8H8_0" arrivalPos="85.19" arrivalSpeed="13.09" duration="228.00" routeLength="3077.12" waitingTime="0.00" waitingCount="0" stopTime="0.00" timeLoss="12.79" rerouteNo="1" devices="tripinfo_SpaceShip40 routing_SpaceShip40" vType="DEFAULT_VEHTYPE" speedFactor="1.03" vaporized=""/>
    <tripinfo id="SpaceShip56" depart="231.00" departLane="F7E7_0" departPos="5.10" departSpeed="0.00" departDelay="0.00" arrival="369.00" arrivalLane="M9N9_0" arrivalPos="85.19" arrivalSpeed="12.24" duration="138.00" routeLength="1517.83" waitingTime="0.00" waitingCount="0" stopTime="0.00" timeLoss="14.38" rerouteNo="1" devices="tripinfo_SpaceShip56 routing_SpaceShip56" vType="DEFAULT_VEHTYPE" speedFactor="0.90" vaporized=""/>
    <tripinfo id="SpaceShip60" depart="256.00" departLane="C5B5_0" departPos="5.10" departSpeed="0.00" departDelay="0.00" arrival="369.00" arrivalLane="N2O2_0" arrivalPos="85.19" arrivalSpeed="13.97" duration="113.00" routeLength="1577.12" waitingTime="0.00" waitingCount="0" stopTime="0.00" timeLoss="7.64" rerouteNo="1" devices="tripinfo_SpaceShip60 routing_SpaceShip60" vType="DEFAULT_VEHTYPE" speedFactor="1.08" vaporized=""/>
    <tripinfo id="SpaceShip70" depart="332.00" departLane="A1B1_0" departPos="5.10" departSpeed="0.00" departDelay="1.00" arrival="374.00" arrivalLane="C5D5_0" arrivalPos="85.19" arrivalSpeed="12.94" duration="42.00" routeLength="460.19" waitingTime="0.00" waitingCount="0" stopTime="0.00" timeLoss="8.42" rerouteNo="1" devices="tripinfo_SpaceShip70 routing_SpaceShip70" vType="DEFAULT_VEHTYPE" speedFactor="1.02" vaporized=""/>
    <tripinfo id="SpaceShip59" depart="249.00" departLane="P5O5_0" departPos="5.10" departSpeed="0.00" departDelay="0.00" arrival="377.00" arrivalLane="A1B3_0" arrivalPos="78.64" arrivalSpeed="12.94" duration="128.00" routeLength="1572.86" waitingTime="0.00" waitingCount="0" stopTime="0.00" timeLoss="9.85" rerouteNo="1" devices="tripinfo_SpaceShip59 routing_SpaceShip59" vType="DEFAULT_VEHTYPE" speedFactor="0.97" vaporized=""/>
    <tripinfo id="SpaceShip58" depart="245.00" departLane="V4U4_0" departPos="5.10" departSpeed="0.00" departDelay="0.00" arrival="382.00" arrivalLane="N5O5_0" arrivalPos="85.19" arrivalSpeed="13.08" duration="137.00" routeLength="1759.57" waitingTime="0.00" waitingCount="0" stopTime="0.00" timeLoss="11.63" rerouteNo="1" devices="tripinfo_SpaceShip58 routing_SpaceShip58" vType="DEFAULT_VEHTYPE" speedFactor="1.02" vaporized=""/>
    <tripinfo id="SpaceShip74" depart="349.00" departLane="A1B1_0" departPos="5.10" departSpeed="0.00" departDelay="0.00" arrival="392.00" arrivalLane="D9E9_0" arrivalPos="85.19" arrivalSpeed="13.03" duration="43.00" routeLength="434.11" waitingTime="0.00" waitingCount="0" stopTime="0.00" timeLoss="8.19" rerouteNo="1" devices="tripinfo_SpaceShip74 routing_SpaceShip74" vType="DEFAULT_VEHTYPE" speedFactor="0.96" vaporized=""/>
    <tripinfo id="SpaceShip49" depart="182.00" departLane="L2K2_0" departPos="5.10" departSpeed="0.00" departDelay="0.00" arrival="395.00" arrivalLane="R9S9_0" arrivalPos="85.19" arrivalSpeed="10.66" duration="213.00" routeLength="2244.39" waitingTime="0.00" waitingCount="0" stopTime="0.00" timeLoss="21.11" rerouteNo="1" devices="tripinfo_SpaceShip49 routing_SpaceShip49" vType="DEFAULT_VEHTYPE" speedFactor="0.85" vaporized=""/>
    <tripinfo id="SpaceShip9" depart="0.00" departLane="X2W2_0" departPos="5.10" departSpeed="0.00" departDelay="0.00" arrival="417.00" arrivalLane="X5Y5_0" arrivalPos="85.19" arrivalSpeed="11.41" duration="417.00" routeLength="4673.73" waitingTime="0.00" waitingCount="0" stopTime="0.00" timeLoss="23.90" rerouteNo="1" devices="tripinfo_SpaceShip9 routing_SpaceShip9" vType="DEFAULT_VEHTYPE" speedFactor="0.86" vaporized=""/>
    <tripinfo id="SpaceShip81" depart="370.00" departLane="H8G8_0" departPos="5.10" departSpeed="0.00" departDelay="0.00" arrival="425.00" arrivalLane="F7G7_0" arrivalPos="85.20" arrivalSpeed="12.78" duration="55.00" routeLength="620.21" waitingTime="0.00" waitingCount="0" stopTime="0.00" timeLoss="8.74" rerouteNo="1" devices="tripinfo_SpaceShip81 routing_SpaceShip81" vType="DEFAULT_VEHTYPE" speedFactor="1.00" vaporized=""/>
    <tripinfo id="SpaceShip54" depart="222.00" departLane="W3V3_0" departPos="5.10" departSpeed="0.00" departDelay="0.00" arrival="434.00" arrivalLane="F7G7_0" arrivalPos="85.20" arrivalSpeed="13.28" duration="212.00" routeLength="2776.91" waitingTime="0.00" waitingCount="0" stopTime="0.00" timeLoss="12.61" rerouteNo="1" devices="tripinfo_SpaceShip54 routing_SpaceShip54" vType="DEFAULT_VEHTYPE" speedFactor="1.00" vaporized=""/>
    <tripinfo id="SpaceShip73" depart="337.00" departLane="M9L9_0" departPos="5.10" departSpeed="0.00" departDelay="0.00" arrival="438.00" arrivalLane="P1{1_0" arrivalPos="85.19" arrivalSpeed="13.82" duration="101.00" routeLength="1322.75" waitingTime="0.00" waitingCount="0" stopTime="0.00" timeLoss="9.66" rerouteNo="1" devices="tripinfo_SpaceShip73 routing_SpaceShip73" vType="DEFAULT_VEHTYPE" speedFactor="1.06" vaporized=""/>
    <tripinfo id="SpaceShip72" depart="337.00" departLane="M2L2_0" departPos="5.10" departSpeed="0.00" departDelay="0.00" arrival="441.00" arrivalLane="C3D3_0" arrivalPos="85.19" arrivalSpeed="12.79" duration="104.00" routeLength="1207.10" waitingTime="0.00" waitingCount="0" stopTime="0.00" timeLoss="10.03" rerouteNo="1" devices="tripinfo_SpaceShip72 routing_SpaceShip72" vType="DEFAULT_VEHTYPE" speedFactor="0.94" vaporized=""/>