<?xml version="1.0" encoding="UTF-8"?>

<!-- generated on 04/28/22 23:51:12 by Eclipse SUMO sumo Version 1.8.0
<configuration xmlns:xsi="http://www.w3.org/2001/XMLSchema-instance" xsi:noNamespaceSchemaLocation="http://sumo.dlr.de/xsd/sumoConfiguration.xsd">

    <input>
        <net-file value="spiderverse.net.xml"/>
    </input>

    <output>
        <tripinfo-output value="output2.xml"/>
    </output>

    <traci_server>
        <remote-port value="1055"/>
    </traci_server>

</configuration>
-->

<tripinfos xmlns:xsi="http://www.w3.org/2001/XMLSchema-instance" xsi:noNamespaceSchemaLocation="http://sumo.dlr.de/xsd/tripinfo_file.xsd">
    <tripinfo id="SpaceShip5" depart="0.00" departLane="C9B9_0" departPos="5.10" departSpeed="0.00" departDelay="0.00" arrival="38.00" arrivalLane="B2C2_0" arrivalPos="85.19" arrivalSpeed="10.41" duration="38.00" routeLength="307.41" waitingTime="0.00" waitingCount="0" stopTime="0.00" timeLoss="9.45" rerouteNo="1" devices="tripinfo_SpaceShip5 routing_SpaceShip5" vType="DEFAULT_VEHTYPE" speedFactor="0.83" vaporized=""/>
    <tripinfo id="SpaceShip3" depart="0.00" departLane="D8C8_0" departPos="5.10" departSpeed="0.00" departDelay="0.00" arrival="65.00" arrivalLane="F5G5_0" arrivalPos="85.19" arrivalSpeed="13.77" duration="65.00" routeLength="877.12" waitingTime="0.00" waitingCount="0" stopTime="0.00" timeLoss="6.31" rerouteNo="1" devices="tripinfo_SpaceShip3 routing_SpaceShip3" vType="DEFAULT_VEHTYPE" speedFactor="1.08" vaporized=""/>
    <tripinfo id="SpaceShip4" depart="0.00" departLane="C3B3_0" departPos="5.10" departSpeed="0.00" departDelay="0.00" arrival="70.00" arrivalLane="H2I2_0" arrivalPos="85.19" arrivalSpeed="13.67" duration="70.00" routeLength="846.56" waitingTime="0.00" waitingCount="0" stopTime="0.00" timeLoss="9.96" rerouteNo="1" devices="tripinfo_SpaceShip4 routing_SpaceShip4" vType="DEFAULT_VEHTYPE" speedFactor="1.03" vaporized=""/>
    <tripinfo id="SpaceShip13" depart="3.00" departLane="C9B9_0" departPos="5.10" departSpeed="0.00" departDelay="3.00" arrival="81.00" arrivalLane="I4_4_0" arrivalPos="85.19" arrivalSpeed="15.19" duration="78.00" routeLength="1076.89" waitingTime="0.00" waitingCount="0" stopTime="0.00" timeLoss="7.99" rerouteNo="1" devices="tripinfo_SpaceShip13 routing_SpaceShip13" vType="DEFAULT_VEHTYPE" speedFactor="1.12" vaporized=""/>
    <tripinfo id="SpaceShip2" depart="0.00" departLane="I7H7_0" departPos="5.10" departSpeed="0.00" departDelay="0.00" arrival="99.00" arrivalLane="E3F3_0" arrivalPos="85.19" arrivalSpeed="13.15" duration="99.00" routeLength="1278.00" waitingTime="0.00" waitingCount="0" stopTime="0.00" timeLoss="7.46" rerouteNo="1" devices="tripinfo_SpaceShip2 routing_SpaceShip2" vType="DEFAULT_VEHTYPE" speedFactor="1.01" vaporized=""/>
    <tripinfo id="SpaceShip11" depart="0.00" departLane="_6I6_0" departPos="5.10" departSpeed="0.00" departDelay="0.00" arrival="104.00" arrivalLane="E2F2_0" arrivalPos="85.19" arrivalSpeed="14.18" duration="104.00" routeLength="1377.97" waitingTime="0.00" waitingCount="0" stopTime="0.00" timeLoss="6.96" rerouteNo="1" devices="tripinfo_SpaceShip11 routing_SpaceShip11" vType="DEFAULT_VEHTYPE" speedFactor="1.03" vaporized=""/>
    <tripinfo id="SpaceShip7" depart="0.00" departLane="I4H4_0" departPos="5.10" departSpeed="0.00" departDelay="0.00" arrival="105.00" arrivalLane="M3N3_0" arrivalPos="85.19" arrivalSpeed="11.70" duration="105.00" routeLength="1157.00" waitingTime="0.00" waitingCount="0" stopTime="0.00" timeLoss="9.81" rerouteNo="1" devices="tripinfo_SpaceShip7 routing_SpaceShip7" vType="DEFAULT_VEHTYPE" speedFactor="0.89" vaporized=""/>
    <tripinfo id="SpaceShip8" depart="0.00" departLane="U5T5_0" departPos="5.10" departSpeed="0.00" departDelay="0.00" arrival="131.00" arrivalLane="R6S6_0" arrivalPos="85.19" arrivalSpeed="12.57" duration="131.00" routeLength="1533.15" waitingTime="0.00" waitingCount="0" stopTime="0.00" timeLoss="11.24" rerouteNo="1" devices="tripinfo_SpaceShip8 routing_SpaceShip8" vType="DEFAULT_VEHTYPE" speedFactor="0.94" vaporized=""/>
    <tripinfo id="SpaceShip10" depart="0.00" departLane="X7W7_0" departPos="5.10" departSpeed="0.00" departDelay="0.00" arrival="144.00" arrivalLane="N6O6_0" arrivalPos="85.19" arrivalSpeed="14.56" duration="144.00" routeLength="1967.44" waitingTime="0.00" waitingCount="0" stopTime="0.00" timeLoss="12.65" rerouteNo="1" devices="tripinfo_SpaceShip10 routing_SpaceShip10" vType="DEFAULT_VEHTYPE" speedFactor="1.09" vaporized=""/>
    <tripinfo id="SpaceShip20" depart="105.00" departLane="F2E2_0" departPos="5.10" departSpeed="0.00" departDelay="0.00" arrival="151.00" arrivalLane="C1D1_0" arrivalPos="85.19" arrivalSpeed="13.63" duration="46.00" routeLength="514.97" waitingTime="0.00" waitingCount="0" stopTime="0.00" timeLoss="7.80" rerouteNo="1" devices="tripinfo_SpaceShip20 routing_SpaceShip20" vType="DEFAULT_VEHTYPE" speedFactor="1.02" vaporized=""/>
    <tripinfo id="SpaceShip9" depart="0.00" departLane="B6A1_0" departPos="5.10" departSpeed="0.00" departDelay="0.00" arrival="162.00" arrivalLane="K1K2_0" arrivalPos="666.90" arrivalSpeed="10.95" duration="162.00" routeLength="1759.51" waitingTime="0.00" waitingCount="0" stopTime="0.00" timeLoss="13.00" rerouteNo="1" devices="tripinfo_SpaceShip9 routing_SpaceShip9" vType="DEFAULT_VEHTYPE" speedFactor="0.86" vaporized=""/>
    <tripinfo id="SpaceShip1" depart="0.00" departLane="_3I3_0" departPos="5.10" departSpeed="0.00" departDelay="0.00" arrival="179.00" arrivalLane="M9N9_0" arrivalPos="85.19" arrivalSpeed="11.97" duration="179.00" routeLength="2177.13" waitingTime="0.00" waitingCount="0" stopTime="0.00" timeLoss="11.39" rerouteNo="1" devices="tripinfo_SpaceShip1 routing_SpaceShip1" vType="DEFAULT_VEHTYPE" speedFactor="0.94" vaporized=""/>
    <tripinfo id="SpaceShip24" depart="152.00" departLane="D1C1_0" departPos="5.10" departSpeed="0.00" departDelay="0.00" arrival="190.00" arrivalLane="A1B5_0" arrivalPos="78.64" arrivalSpeed="10.66" duration="38.00" routeLength="376.87" waitingTime="0.00" waitingCount="0" stopTime="0.00" timeLoss="4.78" rerouteNo="1" devices="tripinfo_SpaceShip24 routing_SpaceShip24" vType="DEFAULT_VEHTYPE" speedFactor="0.83" vaporized=""/>
    <tripinfo id="SpaceShip14" depart="0.00" departLane="X4W4_0" departPos="5.10" departSpeed="0.00" departDelay="0.00" arrival="192.00" arrivalLane="B1C1_0" arrivalPos="85.19" arrivalSpeed="13.12" duration="192.00" routeLength="2477.19" waitingTime="0.00" waitingCount="0" stopTime="0.00" timeLoss="11.55" rerouteNo="1" devices="tripinfo_SpaceShip14 routing_SpaceShip14" vType="DEFAULT_VEHTYPE" speedFactor="0.99" vaporized=""/>
    <tripinfo id="SpaceShip15" depart="39.00" departLane="C2B2_0" departPos="5.10" departSpeed="0.00" departDelay="0.00" arrival="205.00" arrivalLane="R9S9_0" arrivalPos="85.19" arrivalSpeed="11.74" duration="166.00" routeLength="1972.85" waitingTime="0.00" waitingCount="0" stopTime="0.00" timeLoss="11.41" rerouteNo="1" devices="tripinfo_SpaceShip15 routing_SpaceShip15" vType="DEFAULT_VEHTYPE" speedFactor="0.93" vaporized=""/>
    <tripinfo id="SpaceShip18" depart="82.00" departLane="_4I4_0" departPos="5.10" departSpeed="0.00" departDelay="0.00" arrival="228.00" arrivalLane="I9_9_0" arrivalPos="85.19" arrivalSpeed="12.67" duration="146.00" routeLength="1777.99" waitingTime="0.00" waitingCount="0" stopTime="0.00" timeLoss="8.96" rerouteNo="1" devices="tripinfo_SpaceShip18 routing_SpaceShip18" vType="DEFAULT_VEHTYPE" speedFactor="0.94" vaporized=""/>
    <tripinfo id="SpaceShip17" depart="71.00" departLane="I2H2_0" departPos="5.10" departSpeed="0.00" departDelay="0.00" arrival="233.00" arrivalLane="L8M8_0" arrivalPos="85.19" arrivalSpeed="12.13" duration="162.00" routeLength="1977.14" waitingTime="0.00" waitingCount="0" stopTime="0.00" timeLoss="10.08" rerouteNo="1" devices="tripinfo_SpaceShip17 routing_SpaceShip17" vType="DEFAULT_VEHTYPE" speedFactor="0.94" vaporized=""/>
    <tripinfo id="SpaceShip27" depart="191.00" departLane="B5A1_0" departPos="5.10" departSpeed="0.00" departDelay="0.00" arrival="233.00" arrivalLane="D2E2_0" arrivalPos="85.19" arrivalSpeed="12.25" duration="42.00" routeLength="477.13" waitingTime="0.00" waitingCount="0" stopTime="0.00" timeLoss="5.39" rerouteNo="1" devices="tripinfo_SpaceShip27 routing_SpaceShip27" vType="DEFAULT_VEHTYPE" speedFactor="0.95" vaporized=""/>
    <tripinfo id="SpaceShip6" depart="0.00" departLane="}1Y1_0" departPos="5.10" departSpeed="0.00" departDelay="0.00" arrival="240.00" arrivalLane="H7I7_0" arrivalPos="85.19" arrivalSpeed="14.24" duration="240.00" routeLength="3277.15" waitingTime="0.00" waitingCount="0" stopTime="0.00" timeLoss="14.07" rerouteNo="1" devices="tripinfo_SpaceShip6 routing_SpaceShip6" vType="DEFAULT_VEHTYPE" speedFactor="1.05" vaporized=""/>
    <tripinfo id="SpaceShip12" depart="0.00" departLane="R1R2_0" departPos="5.10" departSpeed="0.00" departDelay="0.00" arrival="268.00" arrivalLane="H5I5_0" arrivalPos="85.19" arrivalSpeed="13.33" duration="268.00" routeLength="3635.21" waitingTime="0.00" waitingCount="0" stopTime="0.00" timeLoss="17.07" rerouteNo="1" devices="tripinfo_SpaceShip12 routing_SpaceShip12" vType="DEFAULT_VEHTYPE" speedFactor="1.05" vaporized=""/>
    <tripinfo id="SpaceShip16" depart="66.00" departLane="G5F5_0" departPos="5.10" departSpeed="0.00" departDelay="0.00" arrival="273.00" arrivalLane="X4Y4_0" arrivalPos="85.19" arrivalSpeed="11.87" duration="207.00" routeLength="2320.22" waitingTime="0.00" waitingCount="0" stopTime="0.00" timeLoss="15.32" rerouteNo="1" devices="tripinfo_SpaceShip16 routing_SpaceShip16" vType="DEFAULT_VEHTYPE" speedFactor="0.88" vaporized=""/>
    <tripinfo id="SpaceShip19" depart="100.00" departLane="F3E3_0" departPos="5.10" departSpeed="0.00" departDelay="0.00" arrival="275.00" arrivalLane="R3R4_0" arrivalPos="1145.73" arrivalSpeed="15.98" duration="175.00" routeLength="2531.44" waitingTime="0.00" waitingCount="0" stopTime="0.00" timeLoss="15.52" rerouteNo="1" devices="tripinfo_SpaceShip19 routing_SpaceShip19" vType="DEFAULT_VEHTYPE" speedFactor="1.16" vaporized=""/>
    <tripinfo id="SpaceShip30" depart="229.00" departLane="_9I9_0" departPos="5.10" departSpeed="0.00" departDelay="0.00" arrival="287.00" arrivalLane="H1I1_0" arrivalPos="85.19" arrivalSpeed="15.89" duration="58.00" routeLength="749.13" waitingTime="0.00" waitingCount="0" stopTime="0.00" timeLoss="10.89" rerouteNo="1" devices="tripinfo_SpaceShip30 routing_SpaceShip30" vType="DEFAULT_VEHTYPE" speedFactor="1.18" vaporized=""/>
    <tripinfo id="SpaceShip21" depart="106.00" departLane="N3M3_0" departPos="5.10" departSpeed="0.00" departDelay="0.00" arrival="294.00" arrivalLane="L7M7_0" arrivalPos="85.19" arrivalSpeed="13.05" duration="188.00" routeLength="2476.91" waitingTime="0.00" waitingCount="0" stopTime="0.00" timeLoss="11.14" rerouteNo="1" devices="tripinfo_SpaceShip21 routing_SpaceShip21" vType="DEFAULT_VEHTYPE" speedFactor="1.01" vaporized=""/>
    <tripinfo id="SpaceShip33" depart="241.00" departLane="I7H7_0" departPos="5.10" departSpeed="0.00" departDelay="0.00" arrival="320.00" arrivalLane="D1E1_0" arrivalPos="85.19" arrivalSpeed="15.87" duration="79.00" routeLength="1173.79" waitingTime="0.00" waitingCount="0" stopTime="0.00" timeLoss="6.38" rerouteNo="1" devices="tripinfo_SpaceShip33 routing_SpaceShip33" vType="DEFAULT_VEHTYPE" speedFactor="1.17" vaporized=""/>
    <tripinfo id="SpaceShip37" depart="288.00" departLane="I1H1_0" departPos="5.10" departSpeed="0.00" departDelay="0.00" arrival="345.00" arrivalLane="E9F9_0" arrivalPos="85.18" arrivalSpeed="15.56" duration="57.00" routeLength="751.77" waitingTime="0.00" waitingCount="0" stopTime="0.00" timeLoss="9.46" rerouteNo="1" devices="tripinfo_SpaceShip37 routing_SpaceShip37" vType="DEFAULT_VEHTYPE" speedFactor="1.18" vaporized=""/>
    <tripinfo id="SpaceShip28" depart="193.00" departLane="C1B1_0" departPos="5.10" departSpeed="0.00" departDelay="0.00" arrival="349.00" arrivalLane="U5V5_0" arrivalPos="85.19" arrivalSpeed="14.81" duration="156.00" routeLength="2276.85" waitingTime="0.00" waitingCount="0" stopTime="0.00" timeLoss="10.33" rerouteNo="1" devices="tripinfo_SpaceShip28 routing_SpaceShip28" vType="DEFAULT_VEHTYPE" speedFactor="1.13" vaporized=""/>
    <tripinfo id="SpaceShip34" depart="269.00" departLane="I5H5_0" departPos="5.10" departSpeed="0.00" departDelay="0.00" arrival="354.00" arrivalLane="C1D1_0" arrivalPos="85.19" arrivalSpeed="13.27" duration="85.00" routeLength="1077.97" waitingTime="0.00" waitingCount="0" stopTime="0.00" timeLoss="6.54" rerouteNo="1" devices="tripinfo_SpaceShip34 routing_SpaceShip34" vType="DEFAULT_VEHTYPE" speedFactor="0.99" vaporized=""/>
    <tripinfo id="SpaceShip26" depart="180.00" departLane="N9M9_0" departPos="5.10" departSpeed="0.00" departDelay="0.00" arrival="355.00" arrivalLane="O7P7_0" arrivalPos="85.19" arrivalSpeed="12.41" duration="175.00" routeLength="2018.01" waitingTime="0.00" waitingCount="0" stopTime="0.00" timeLoss="14.62" rerouteNo="1" devices="tripinfo_SpaceShip26 routing_SpaceShip26" vType="DEFAULT_VEHTYPE" speedFactor="0.92" vaporized=""/>
    <tripinfo id="SpaceShip25" depart="163.00" departLane="K2K1_0" departPos="5.10" departSpeed="0.00" departDelay="0.00" arrival="357.00" arrivalLane="E5F5_0" arrivalPos="85.18" arrivalSpeed="11.41" duration="194.00" routeLength="2152.87" waitingTime="0.00" waitingCount="0" stopTime="0.00" timeLoss="14.87" rerouteNo="1" devices="tripinfo_SpaceShip25 routing_SpaceShip25" vType="DEFAULT_VEHTYPE" speedFactor="0.87" vaporized=""/>
    <tripinfo id="SpaceShip31" depart="234.00" departLane="M8L8_0" departPos="5.10" departSpeed="0.00" departDelay="0.00" arrival="357.00" arrivalLane="T7U7_0" arrivalPos="85.19" arrivalSpeed="15.07" duration="123.00" routeLength="1730.62" waitingTime="0.00" waitingCount="0" stopTime="0.00" timeLoss="13.29" rerouteNo="1" devices="tripinfo_SpaceShip31 routing_SpaceShip31" vType="DEFAULT_VEHTYPE" speedFactor="1.15" vaporized=""/>
    <tripinfo id="SpaceShip29" depart="206.00" departLane="S9R9_0" departPos="5.10" departSpeed="0.00" departDelay="0.00" arrival="369.00" arrivalLane="B2C2_0" arrivalPos="85.19" arrivalSpeed="12.19" duration="163.00" routeLength="1907.40" waitingTime="0.00" waitingCount="0" stopTime="0.00" timeLoss="14.38" rerouteNo="1" devices="tripinfo_SpaceShip29 routing_SpaceShip29" vType="DEFAULT_VEHTYPE" speedFactor="0.93" vaporized=""/>
    <tripinfo id="SpaceShip0" depart="0.00" departLane="Y9X9_0" departPos="5.10" departSpeed="0.00" departDelay="0.00" arrival="379.00" arrivalLane="R6R7_0" arrivalPos="1145.73" arrivalSpeed="14.29" duration="379.00" routeLength="5238.57" waitingTime="0.00" waitingCount="0" stopTime="0.00" timeLoss="22.10" rerouteNo="1" devices="tripinfo_SpaceShip0 routing_SpaceShip0" vType="DEFAULT_VEHTYPE" speedFactor="1.06" vaporized=""/>
    <tripinfo id="SpaceShip32" depart="234.00" departLane="E2D2_0" departPos="5.10" departSpeed="0.00" departDelay="0.00" arrival="382.00" arrivalLane="S3T3_0" arrivalPos="85.19" arrivalSpeed="13.22" duration="148.00" routeLength="1875.51" waitingTime="0.00" waitingCount="0" stopTime="0.00" timeLoss="12.04" rerouteNo="1" devices="tripinfo_SpaceShip32 routing_SpaceShip32" vType="DEFAULT_VEHTYPE" speedFactor="1.01" vaporized=""/>
    <tripinfo id="SpaceShip23" depart="145.00" departLane="O6N6_0" departPos="5.10" departSpeed="0.00" departDelay="0.00" arrival="385.00" arrivalLane="N1O1_0" arrivalPos="85.19" arrivalSpeed="12.21" duration="240.00" routeLength="2776.86" waitingTime="0.00" waitingCount="0" stopTime="0.00" timeLoss="14.74" rerouteNo="1" devices="tripinfo_SpaceShip23 routing_SpaceShip23" vType="DEFAULT_VEHTYPE" speedFactor="0.89" vaporized=""/>
    <tripinfo id="SpaceShip44" depart="358.00" departLane="F5E5_0" departPos="5.10" departSpeed="0.00" departDelay="0.00" arrival="407.00" arrivalLane="A1B4_0" arrivalPos="78.64" arrivalSpeed="14.12" duration="49.00" routeLength="565.69" waitingTime="0.00" waitingCount="0" stopTime="0.00" timeLoss="7.82" rerouteNo="1" devices="tripinfo_SpaceShip44 routing_SpaceShip44" vType="DEFAULT_VEHTYPE" speedFactor="1.04" vaporized=""/>
    <tripinfo id="SpaceShip35" depart="274.00" departLane="Y4X4_0" departPos="5.10" departSpeed="0.00" departDelay="0.00" arrival="422.00" arrivalLane="S3T3_0" arrivalPos="85.19" arrivalSpeed="13.11" duration="148.00" routeLength="1909.44" waitingTime="0.00" waitingCount="0" stopTime="0.00" timeLoss="12.01" rerouteNo="1" devices="tripinfo_SpaceShip35 routing_SpaceShip35" vType="DEFAULT_VEHTYPE" speedFactor="1.02" vaporized=""/>
    <tripinfo id="SpaceShip39" depart="321.00" departLane="E1D1_0" departPos="5.10" departSpeed="0.00" departDelay="0.00" arrival="437.00" arrivalLane="K8L8_0" arrivalPos="85.19" arrivalSpeed="11.50" duration="116.00" routeLength="1286.74" waitingTime="0.00" waitingCount="0" stopTime="0.00" timeLoss="11.26" rerouteNo="1" devices="tripinfo_SpaceShip39 routing_SpaceShip39" vType="DEFAULT_VEHTYPE" speedFactor="0.90" vaporized=""/>
    <tripinfo id="SpaceShip40" depart="346.00" departLane="F9E9_0" departPos="5.10" departSpeed="0.00" departDelay="0.00" arrival="443.00" arrivalLane="H3I3_0" arrivalPos="85.20" arrivalSpeed="13.35" duration="97.00" routeLength="1273.77" waitingTime="0.00" waitingCount="0" stopTime="0.00" timeLoss="7.33" rerouteNo="1" devices="tripinfo_SpaceShip40 routing_SpaceShip40" vType="DEFAULT_VEHTYPE" speedFactor="1.03" vaporized=""/>
    <tripinfo id="SpaceShip43" depart="356.00" departLane="P7O7_0" departPos="5.10" departSpeed="0.00" departDelay="0.00" arrival="482.00" arrivalLane="T6U6_0" arrivalPos="85.19" arrivalSpeed="14.29" duration="126.00" routeLength="1635.81" waitingTime="0.00" waitingCount="0" stopTime="0.00" timeLoss="10.93" rerouteNo="1" devices="tripinfo_SpaceShip43 routing_SpaceShip43" vType="DEFAULT_VEHTYPE" speedFactor="1.04" vaporized=""/>
    <tripinfo id="SpaceShip22" depart="132.00" departLane="S6R6_0" departPos="5.10" departSpeed="0.00" departDelay="0.00" arrival="498.00" arrivalLane="R3R4_0" arrivalPos="1145.73" arrivalSpeed="12.61" duration="366.00" routeLength="4638.60" waitingTime="0.00" waitingCount="0" stopTime="0.00" timeLoss="22.03" rerouteNo="1" devices="tripinfo_SpaceShip22 routing_SpaceShip22" vType="DEFAULT_VEHTYPE" speedFactor="0.98" vaporized=""/>
    <tripinfo id="SpaceShip42" depart="355.00" departLane="D1C1_0" departPos="5.10" departSpeed="0.00" departDelay="0.00" arrival="502.00" arrivalLane="R7S7_0" arrivalPos="85.20" arrivalSpeed="14.63" duration="147.00" routeLength="2077.18" waitingTime="0.00" waitingCount="0" stopTime="0.00" timeLoss="9.77" rerouteNo="1" devices="tripinfo_SpaceShip42 routing_SpaceShip42" vType="DEFAULT_VEHTYPE" speedFactor="1.09" vaporized=""/>
    <tripinfo id="SpaceShip46" depart="370.00" departLane="C2B2_0" departPos="5.10" departSpeed="0.00" departDelay="0.00" arrival="502.00" arrivalLane="P3{3_0" arrivalPos="85.19" arrivalSpeed="12.62" duration="132.00" routeLength="1638.71" waitingTime="0.00" waitingCount="0" stopTime="0.00" timeLoss="12.59" rerouteNo="1" devices="tripinfo_SpaceShip46 routing_SpaceShip46" vType="DEFAULT_VEHTYPE" speedFactor="1.00" vaporized=""/>
    <tripinfo id="SpaceShip53" depart="444.00" departLane="I3H3_0" departPos="5.10" departSpeed="0.00" departDelay="0.00" arrival="512.00" arrivalLane="A1B9_0" arrivalPos="78.64" arrivalSpeed="14.85" duration="68.00" routeLength="877.14" waitingTime="0.00" waitingCount="0" stopTime="0.00" timeLoss="9.77" rerouteNo="1" devices="tripinfo_SpaceShip53 routing_SpaceShip53" vType="DEFAULT_VEHTYPE" speedFactor="1.10" vaporized=""/>
    <tripinfo id="SpaceShip41" depart="350.00" departLane="V5U5_0" departPos="5.10" departSpeed="0.00" departDelay="0.00" arrival="528.00" arrivalLane="A1B4_0" arrivalPos="78.64" arrivalSpeed="13.22" duration="178.00" routeLength="2165.68" waitingTime="0.00" waitingCount="0" stopTime="0.00" timeLoss="13.21" rerouteNo="1" devices="tripinfo_SpaceShip41 routing_SpaceShip41" vType="DEFAULT_VEHTYPE" speedFactor="0.96" vaporized=""/>
    <tripinfo id="SpaceShip38" depart="295.00" departLane="M7L7_0" departPos="5.10" departSpeed="0.00" departDelay="0.00" arrival="536.00" arrivalLane="W1X1_0" arrivalPos="85.19" arrivalSpeed="15.29" duration="241.00" routeLength="3473.80" waitingTime="0.00" waitingCount="0" stopTime="0.00" timeLoss="13.49" rerouteNo="1" devices="tripinfo_SpaceShip38 routing_SpaceShip38" vType="DEFAULT_VEHTYPE" speedFactor="1.10" vaporized=""/>
    <tripinfo id="SpaceShip49" depart="386.00" departLane="O1N1_0" departPos="5.10" departSpeed="0.00" departDelay="0.00" arrival="545.00" arrivalLane="F3G3_0" arrivalPos="85.19" arrivalSpeed="11.28" duration="159.00" routeLength="1654.64" waitingTime="1.00" waitingCount="1" stopTime="0.00" timeLoss="17.64" rerouteNo="1" devices="tripinfo_SpaceShip49 routing_SpaceShip49" vType="DEFAULT_VEHTYPE" speedFactor="0.85" vaporized=""/>
    <tripinfo id="SpaceShip51" depart="423.00" departLane="T3S3_0" departPos="5.10" departSpeed="0.00" departDelay="0.00" arrival="554.00" arrivalLane="X2Y2_0" arrivalPos="85.19" arrivalSpeed="15.89" duration="131.00" routeLength="1909.42" waitingTime="0.00" waitingCount="0" stopTime="0.00" timeLoss="12.43" rerouteNo="1" devices="tripinfo_SpaceShip51 routing_SpaceShip51" vType="DEFAULT_VEHTYPE" speedFactor="1.17" vaporized=""/>
    <tripinfo id="SpaceShip58" depart="513.00" departLane="B9A1_0" departPos="5.10" departSpeed="0.00" departDelay="0.00" arrival="584.00" arrivalLane="H1I1_0" arrivalPos="85.19" arrivalSpeed="13.71" duration="71.00" routeLength="862.24" waitingTime="0.00" waitingCount="0" stopTime="0.00" timeLoss="8.83" rerouteNo="1" devices="tripinfo_SpaceShip58 routing_SpaceShip58" vType="DEFAULT_VEHTYPE" speedFactor="1.02" vaporized=""/>
    <tripinfo id="SpaceShip52" depart="438.00" departLane="L8K8_0" departPos="5.10" departSpeed="0.00" departDelay="0.00" arrival="618.00" arrivalLane="M2N2_0" arrivalPos="85.19" arrivalSpeed="13.91" duration="180.00" routeLength="2373.77" waitingTime="0.00" waitingCount="0" stopTime="0.00" timeLoss="10.98" rerouteNo="1" devices="tripinfo_SpaceShip52 routing_SpaceShip52" vType="DEFAULT_VEHTYPE" speedFactor="1.02" vaporized=""/>
    <tripinfo id="SpaceShip50" depart="408.00" departLane="B4A1_0" departPos="5.10" departSpeed="0.00" departDelay="0.00" arrival="624.00" arrivalLane="W6X6_0" arrivalPos="85.19" arrivalSpeed="10.65" duration="216.00" routeLength="2368.85" waitingTime="0.00" waitingCount="0" stopTime="0.00" timeLoss="14.66" rerouteNo="1" devices="tripinfo_SpaceShip50 routing_SpaceShip50" vType="DEFAULT_VEHTYPE" speedFactor="0.85" vaporized=""/>
    <tripinfo id="SpaceShip48" depart="383.00" departLane="T3S3_0" departPos="5.10" departSpeed="0.00" departDelay="0.00" arrival="627.00" arrivalLane="I8_8_0" arrivalPos="85.19" arrivalSpeed="11.35" duration="244.00" routeLength="2778.00" waitingTime="0.00" waitingCount="0" stopTime="0.00" timeLoss="15.16" rerouteNo="1" devices="tripinfo_SpaceShip48 routing_SpaceShip48" vType="DEFAULT_VEHTYPE" speedFactor="0.88" vaporized=""/>
    <tripinfo id="SpaceShip45" depart="358.00" departLane="U7T7_0" departPos="5.10" departSpeed="0.00" departDelay="0.00" arrival="630.00" arrivalLane="S3T3_0" arrivalPos="85.19" arrivalSpeed="15.02" duration="272.00" routeLength="3878.04" waitingTime="0.00" waitingCount="0" stopTime="0.00" timeLoss="15.05" rerouteNo="1" devices="tripinfo_SpaceShip45 routing_SpaceShip45" vType="DEFAULT_VEHTYPE" speedFactor="1.09" vaporized=""/>
    <tripinfo id="SpaceShip57" depart="503.00" departLane="{3P3_0" departPos="5.10" departSpeed="0.00" departDelay="0.00" arrival="658.00" arrivalLane="O1P1_0" arrivalPos="85.19" arrivalSpeed="15.62" duration="155.00" routeLength="2191.61" waitingTime="0.00" waitingCount="0" stopTime="0.00" timeLoss="15.76" rerouteNo="1" devices="tripinfo_SpaceShip57 routing_SpaceShip57" vType="DEFAULT_VEHTYPE" speedFactor="1.14" vaporized=""/>
    <tripinfo id="SpaceShip36" depart="276.00" departLane="R4R3_0" departPos="5.10" departSpeed="0.00" departDelay="0.00" arrival="666.00" arrivalLane="U9V9_0" arrivalPos="85.18" arrivalSpeed="12.68" duration="390.00" routeLength="4931.96" waitingTime="0.00" waitingCount="0" stopTime="0.00" timeLoss="23.78" rerouteNo="1" devices="tripinfo_SpaceShip36 routing_SpaceShip36" vType="DEFAULT_VEHTYPE" speedFactor="0.97" vaporized=""/>
    <tripinfo id="SpaceShip55" depart="499.00" departLane="R4R3_0" departPos="5.10" departSpeed="0.00" departDelay="0.00" arrival="686.00" arrivalLane="G3H3_0" arrivalPos="85.19" arrivalSpeed="13.15" duration="187.00" routeLength="2324.81" waitingTime="0.00" waitingCount="0" stopTime="0.00" timeLoss="16.63" rerouteNo="1" devices="tripinfo_SpaceShip55 routing_SpaceShip55" vType="DEFAULT_VEHTYPE" speedFactor="1.00" vaporized=""/>
    <tripinfo id="SpaceShip60" depart="537.00" departLane="X1W1_0" departPos="5.10" departSpeed="0.00" departDelay="0.00" arrival="699.00" arrivalLane="B1A1_0" arrivalPos="78.64" arrivalSpeed="14.69" duration="162.00" routeLength="2273.54" waitingTime="0.00" waitingCount="0" stopTime="0.00" timeLoss="9.86" rerouteNo="1" devices="tripinfo_SpaceShip60 routing_SpaceShip60" vType="DEFAULT_VEHTYPE" speedFactor="1.08" vaporized=""/>
    <tripinfo id="SpaceShip56" depart="503.00" departLane="S7R7_0" departPos="5.10" departSpeed="0.00" departDelay="0.00" arrival="715.00" arrivalLane="G4H4_0" arrivalPos="85.20" arrivalSpeed="11.28" duration="212.00" routeLength="2477.19" waitingTime="0.00" waitingCount="0" stopTime="0.00" timeLoss="12.78" rerouteNo="1" devices="tripinfo_SpaceShip56 routing_SpaceShip56" vType="DEFAULT_VEHTYPE" speedFactor="0.90" vaporized=""/>
    <tripinfo id="SpaceShip66" depart="628.00" departLane="_8I8_0" departPos="5.10" departSpeed="0.00" departDelay="0.00" arrival="730.00" arrivalLane="C5D5_0" arrivalPos="85.19" arrivalSpeed="12.00" duration="102.00" routeLength="1177.14" waitingTime="0.00" waitingCount="0" stopTime="0.00" timeLoss="7.61" rerouteNo="1" devices="tripinfo_SpaceShip66 routing_SpaceShip66" vType="DEFAULT_VEHTYPE" speedFactor="0.91" vaporized=""/>
    <tripinfo id="SpaceShip47" depart="381.00" departLane="R7R6_0" departPos="5.10" departSpeed="0.00" departDelay="1.00" arrival="732.00" arrivalLane="W8X8_0" arrivalPos="85.19" arrivalSpeed="11.86" duration="351.00" routeLength="4050.49" waitingTime="0.00" waitingCount="0" stopTime="0.00" timeLoss="25.69" rerouteNo="1" devices="tripinfo_SpaceShip47 routing_SpaceShip47" vType="DEFAULT_VEHTYPE" speedFactor="0.90" vaporized=""/>
    <tripinfo id="SpaceShip59" depart="529.00" departLane="B4A1_0" departPos="5.10" departSpeed="0.00" departDelay="0.00" arrival="734.00" arrivalLane="Y8}8_0" arrivalPos="85.19" arrivalSpeed="13.00" duration="205.00" routeLength="2576.89" waitingTime="0.00" waitingCount="0" stopTime="0.00" timeLoss="12.86" rerouteNo="1" devices="tripinfo_SpaceShip59 routing_SpaceShip59" vType="DEFAULT_VEHTYPE" speedFactor="0.97" vaporized=""/>
    <tripinfo id="SpaceShip61" depart="546.00" departLane="G3F3_0" departPos="5.10" departSpeed="0.00" departDelay="0.00" arrival="736.00" arrivalLane="V8W8_0" arrivalPos="85.19" arrivalSpeed="14.85" duration="190.00" routeLength="2778.00" waitingTime="0.00" waitingCount="0" stopTime="0.00" timeLoss="11.23" rerouteNo="1" devices="tripinfo_SpaceShip61 routing_SpaceShip61" vType="DEFAULT_VEHTYPE" speedFactor="1.12" vaporized=""/>
    <tripinfo id="SpaceShip62" depart="555.00" departLane="Y2X2_0" departPos="5.10" departSpeed="0.00" departDelay="0.00" arrival="736.00" arrivalLane="E3F3_0" arrivalPos="85.19" arrivalSpeed="12.83" duration="181.00" routeLength="2343.90" waitingTime="0.00" waitingCount="0" stopTime="0.00" timeLoss="13.81" rerouteNo="1" devices="tripinfo_SpaceShip62 routing_SpaceShip62" vType="DEFAULT_VEHTYPE" speedFactor="1.02" vaporized=""/>
    <tripinfo id="SpaceShip54" depart="483.00" departLane="U6T6_0" departPos="5.10" departSpeed="0.00" departDelay="0.00" arrival="738.00" arrivalLane="Y8}8_0" arrivalPos="85.19" arrivalSpeed="13.01" duration="255.00" routeLength="3269.96" waitingTime="0.00" waitingCount="0" stopTime="0.00" timeLoss="18.78" rerouteNo="1" devices="tripinfo_SpaceShip54 routing_SpaceShip54" vType="DEFAULT_VEHTYPE" speedFactor="1.00" vaporized=""/>
    <tripinfo id="SpaceShip63" depart="585.00" departLane="I1H1_0" departPos="5.10" departSpeed="0.00" departDelay="0.00" arrival="749.00" arrivalLane="V2W2_0" arrivalPos="85.19" arrivalSpeed="12.42" duration="164.00" routeLength="2049.11" waitingTime="0.00" waitingCount="0" stopTime="0.00" timeLoss="13.11" rerouteNo="1" devices="tripinfo_SpaceShip63 routing_SpaceShip63" vType="DEFAULT_VEHTYPE" speedFactor="0.99" vaporized=""/>
    <tripinfo id="SpaceShip68" depart="659.00" departLane="P1O1_0" departPos="5.10" departSpeed="0.00" departDelay="0.00" arrival="767.00" arrivalLane="G9H9_0" arrivalPos="85.19" arrivalSpeed="14.08" duration="108.00" routeLength="1388.58" waitingTime="0.00" waitingCount="0" stopTime="0.00" timeLoss="10.70" rerouteNo="1" devices="tripinfo_SpaceShip68 routing_SpaceShip68" vType="DEFAULT_VEHTYPE" speedFactor="1.04" vaporized=""/>
    <tripinfo id="SpaceShip70" depart="687.00" departLane="H3G3_0" departPos="5.10" departSpeed="0.00" departDelay="0.00" arrival="767.00" arrivalLane="F1G1_0" arrivalPos="85.19" arrivalSpeed="13.36" duration="80.00" routeLength="960.34" waitingTime="0.00" waitingCount="0" stopTime="0.00" timeLoss="11.32" rerouteNo="1" devices="tripinfo_SpaceShip70 routing_SpaceShip70" vType="DEFAULT_VEHTYPE" speedFactor="1.02" vaporized=""/>
    <tripinfo id="SpaceShip64" depart="619.00" departLane="N2M2_0" departPos="5.10" departSpeed="0.00" departDelay="0.00" arrival="795.00" arrivalLane="X3Y3_0" arrivalPos="85.19" arrivalSpeed="11.91" duration="176.00" routeLength="2091.16" waitingTime="0.00" waitingCount="0" stopTime="0.00" timeLoss="13.58" rerouteNo="1" devices="tripinfo_SpaceShip64 routing_SpaceShip64" vType="DEFAULT_VEHTYPE" speedFactor="0.94" vaporized=""/>