<?xml version="1.0" encoding="UTF-8"?>

<!-- generated on 2022-03-18 09:53:29 by Eclipse SUMO sumo Version 1.9.2
<configuration xmlns:xsi="http://www.w3.org/2001/XMLSchema-instance" xsi:noNamespaceSchemaLocation="http://sumo.dlr.de/xsd/sumoConfiguration.xsd">

    <input>
        <net-file value="spiderverse.net.xml"/>
    </input>

    <output>
        <tripinfo-output value="output1.xml"/>
    </output>

    <traci_server>
        <remote-port value="58183"/>
    </traci_server>

</configuration>
-->

<tripinfos xmlns:xsi="http://www.w3.org/2001/XMLSchema-instance" xsi:noNamespaceSchemaLocation="http://sumo.dlr.de/xsd/tripinfo_file.xsd">
    <tripinfo id="SpaceShip97" depart="3.00" departLane="C4B4" departPos="5.10" departSpeed="0.00" departDelay="3.00" arrival="29.00" arrivalLane="A1B7" arrivalPos="78.64" arrivalSpeed="11.95" duration="26.00" routeLength="273.76" waitingTime="0.00" waitingCount="0" stopTime="0.00" timeLoss="3.66" rerouteNo="1" devices="tripinfo_SpaceShip97 routing_SpaceShip97" vType="DEFAULT_VEHTYPE" speedFactor="0.91" vaporized=""/>
    <tripinfo id="SpaceShip61" depart="3.00" departLane="A1B1" departPos="5.10" departSpeed="0.00" departDelay="3.00" arrival="31.00" arrivalLane="B2C2" arrivalPos="85.19" arrivalSpeed="14.98" duration="28.00" routeLength="236.81" waitingTime="0.00" waitingCount="0" stopTime="0.00" timeLoss="11.27" rerouteNo="1" devices="tripinfo_SpaceShip61 routing_SpaceShip61" vType="DEFAULT_VEHTYPE" speedFactor="1.12" vaporized=""/>
    <tripinfo id="SpaceShip31" depart="0.00" departLane="B7A1" departPos="5.10" departSpeed="0.00" departDelay="0.00" arrival="36.00" arrivalLane="D3E3" arrivalPos="85.19" arrivalSpeed="15.86" duration="36.00" routeLength="477.98" waitingTime="0.00" waitingCount="0" stopTime="0.00" timeLoss="5.30" rerouteNo="1" devices="tripinfo_SpaceShip31 routing_SpaceShip31" vType="DEFAULT_VEHTYPE" speedFactor="1.15" vaporized=""/>
    <tripinfo id="SpaceShip72" depart="0.00" departLane="B8A1" departPos="5.10" departSpeed="0.00" departDelay="0.00" arrival="36.00" arrivalLane="B1A1" arrivalPos="78.64" arrivalSpeed="12.13" duration="36.00" routeLength="252.19" waitingTime="2.00" waitingCount="2" stopTime="0.00" timeLoss="13.63" rerouteNo="1" devices="tripinfo_SpaceShip72 routing_SpaceShip72" vType="DEFAULT_VEHTYPE" speedFactor="0.94" vaporized=""/>
    <tripinfo id="SpaceShip84" depart="0.00" departLane="C4B4" departPos="5.10" departSpeed="0.00" departDelay="0.00" arrival="40.00" arrivalLane="B1C1" arrivalPos="85.19" arrivalSpeed="15.00" duration="40.00" routeLength="377.13" waitingTime="0.00" waitingCount="0" stopTime="0.00" timeLoss="15.39" rerouteNo="1" devices="tripinfo_SpaceShip84 routing_SpaceShip84" vType="DEFAULT_VEHTYPE" speedFactor="1.15" vaporized=""/>
    <tripinfo id="SpaceShip118" depart="0.00" departLane="D3C3" departPos="5.10" departSpeed="0.00" departDelay="0.00" arrival="46.00" arrivalLane="D2E2" arrivalPos="85.19" arrivalSpeed="13.63" duration="46.00" routeLength="414.97" waitingTime="4.00" waitingCount="1" stopTime="0.00" timeLoss="14.18" rerouteNo="1" devices="tripinfo_SpaceShip118 routing_SpaceShip118" vType="DEFAULT_VEHTYPE" speedFactor="0.99" vaporized=""/>
    <tripinfo id="SpaceShip136" depart="3.00" departLane="D5C5" departPos="5.10" departSpeed="0.00" departDelay="3.00" arrival="49.00" arrivalLane="B1A1" arrivalPos="78.64" arrivalSpeed="14.71" duration="46.00" routeLength="461.30" waitingTime="0.00" waitingCount="0" stopTime="0.00" timeLoss="14.92" rerouteNo="1" devices="tripinfo_SpaceShip136 routing_SpaceShip136" vType="DEFAULT_VEHTYPE" speedFactor="1.12" vaporized=""/>
    <tripinfo id="SpaceShip186" depart="0.00" departLane="F4E4" departPos="5.10" departSpeed="0.00" departDelay="0.00" arrival="56.00" arrivalLane="B1A1" arrivalPos="78.64" arrivalSpeed="13.90" duration="56.00" routeLength="660.46" waitingTime="0.00" waitingCount="0" stopTime="0.00" timeLoss="10.94" rerouteNo="1" devices="tripinfo_SpaceShip186 routing_SpaceShip186" vType="DEFAULT_VEHTYPE" speedFactor="1.08" vaporized=""/>
    <tripinfo id="SpaceShip63" depart="0.00" departLane="_7I7" departPos="5.10" departSpeed="0.00" departDelay="0.00" arrival="62.00" arrivalLane="I8_8" arrivalPos="85.19" arrivalSpeed="12.64" duration="62.00" routeLength="717.53" waitingTime="0.00" waitingCount="0" stopTime="0.00" timeLoss="8.28" rerouteNo="1" devices="tripinfo_SpaceShip63 routing_SpaceShip63" vType="DEFAULT_VEHTYPE" speedFactor="0.99" vaporized=""/>
    <tripinfo id="SpaceShip73" depart="0.00" departLane="G3F3" departPos="5.10" departSpeed="0.00" departDelay="0.00" arrival="64.00" arrivalLane="B4C4" arrivalPos="85.19" arrivalSpeed="13.77" duration="64.00" routeLength="638.71" waitingTime="7.00" waitingCount="1" stopTime="0.00" timeLoss="19.31" rerouteNo="1" devices="tripinfo_SpaceShip73 routing_SpaceShip73" vType="DEFAULT_VEHTYPE" speedFactor="1.06" vaporized=""/>
    <tripinfo id="SpaceShip93" depart="3.00" departLane="D9C9" departPos="5.10" departSpeed="0.00" departDelay="3.00" arrival="65.00" arrivalLane="E7F7" arrivalPos="85.19" arrivalSpeed="12.05" duration="62.00" routeLength="649.93" waitingTime="0.00" waitingCount="0" stopTime="0.00" timeLoss="9.27" rerouteNo="1" devices="tripinfo_SpaceShip93 routing_SpaceShip93" vType="DEFAULT_VEHTYPE" speedFactor="0.92" vaporized=""/>
    <tripinfo id="SpaceShip179" depart="22.00" departLane="A1B1" departPos="5.10" departSpeed="0.00" departDelay="22.00" arrival="67.00" arrivalLane="C3D3" arrivalPos="85.19" arrivalSpeed="13.65" duration="45.00" routeLength="405.52" waitingTime="0.00" waitingCount="0" stopTime="0.00" timeLoss="16.01" rerouteNo="1" devices="tripinfo_SpaceShip179 routing_SpaceShip179" vType="DEFAULT_VEHTYPE" speedFactor="1.06" vaporized=""/>
    <tripinfo id="SpaceShip23" depart="0.00" departLane="C5B5" departPos="5.10" departSpeed="0.00" departDelay="0.00" arrival="71.00" arrivalLane="F3G3" arrivalPos="85.19" arrivalSpeed="11.48" duration="71.00" routeLength="772.87" waitingTime="0.00" waitingCount="0" stopTime="0.00" timeLoss="6.87" rerouteNo="1" devices="tripinfo_SpaceShip23 routing_SpaceShip23" vType="DEFAULT_VEHTYPE" speedFactor="0.89" vaporized=""/>
    <tripinfo id="SpaceShip91" depart="0.00" departLane="G8F8" departPos="5.10" departSpeed="0.00" departDelay="0.00" arrival="71.00" arrivalLane="B1A1" arrivalPos="78.64" arrivalSpeed="11.70" duration="71.00" routeLength="705.52" waitingTime="1.00" waitingCount="1" stopTime="0.00" timeLoss="12.35" rerouteNo="1" devices="tripinfo_SpaceShip91 routing_SpaceShip91" vType="DEFAULT_VEHTYPE" speedFactor="0.89" vaporized=""/>
    <tripinfo id="SpaceShip112" depart="13.00" departLane="A1B1" departPos="5.10" departSpeed="0.00" departDelay="13.00" arrival="72.00" arrivalLane="E8F8" arrivalPos="85.19" arrivalSpeed="14.99" duration="59.00" routeLength="600.66" waitingTime="0.00" waitingCount="0" stopTime="0.00" timeLoss="18.10" rerouteNo="1" devices="tripinfo_SpaceShip112 routing_SpaceShip112" vType="DEFAULT_VEHTYPE" speedFactor="1.10" vaporized=""/>
    <tripinfo id="SpaceShip166" depart="10.00" departLane="G7F7" departPos="5.10" departSpeed="0.00" departDelay="10.00" arrival="72.00" arrivalLane="B6C6" arrivalPos="85.19" arrivalSpeed="13.66" duration="62.00" routeLength="646.58" waitingTime="0.00" waitingCount="0" stopTime="0.00" timeLoss="14.25" rerouteNo="1" devices="tripinfo_SpaceShip166 routing_SpaceShip166" vType="DEFAULT_VEHTYPE" speedFactor="1.00" vaporized=""/>
    <tripinfo id="SpaceShip30" depart="0.00" departLane="_3I3" departPos="5.10" departSpeed="0.00" departDelay="0.00" arrival="74.00" arrivalLane="B6C6" arrivalPos="85.19" arrivalSpeed="15.41" duration="74.00" routeLength="1073.78" waitingTime="0.00" waitingCount="0" stopTime="0.00" timeLoss="7.40" rerouteNo="1" devices="tripinfo_SpaceShip30 routing_SpaceShip30" vType="DEFAULT_VEHTYPE" speedFactor="1.18" vaporized=""/>
    <tripinfo id="SpaceShip178" depart="3.00" departLane="H7G7" departPos="5.10" departSpeed="0.00" departDelay="3.00" arrival="79.00" arrivalLane="B5C5" arrivalPos="85.19" arrivalSpeed="14.84" duration="76.00" routeLength="872.88" waitingTime="0.00" waitingCount="0" stopTime="0.00" timeLoss="16.43" rerouteNo="1" devices="tripinfo_SpaceShip178 routing_SpaceShip178" vType="DEFAULT_VEHTYPE" speedFactor="1.08" vaporized=""/>
    <tripinfo id="SpaceShip97" depart="30.00" departLane="B7A1" departPos="5.10" departSpeed="0.00" departDelay="0.00" arrival="80.00" arrivalLane="E4F4" arrivalPos="85.19" arrivalSpeed="11.91" duration="50.00" routeLength="577.13" waitingTime="0.00" waitingCount="0" stopTime="0.00" timeLoss="5.64" rerouteNo="1" devices="tripinfo_SpaceShip97 routing_SpaceShip97" vType="DEFAULT_VEHTYPE" speedFactor="0.95" vaporized=""/>
    <tripinfo id="SpaceShip19" depart="0.00" departLane="O3N3" departPos="5.10" departSpeed="0.00" departDelay="0.00" arrival="87.00" arrivalLane="I4_4" arrivalPos="85.19" arrivalSpeed="15.59" duration="87.00" routeLength="1217.53" waitingTime="0.00" waitingCount="0" stopTime="0.00" timeLoss="10.42" rerouteNo="1" devices="tripinfo_SpaceShip19 routing_SpaceShip19" vType="DEFAULT_VEHTYPE" speedFactor="1.16" vaporized=""/>
    <tripinfo id="SpaceShip136" depart="54.00" departLane="A1B1" departPos="5.10" departSpeed="0.00" departDelay="4.00" arrival="88.00" arrivalLane="C9D9" arrivalPos="85.19" arrivalSpeed="13.31" duration="34.00" routeLength="334.11" waitingTime="0.00" waitingCount="0" stopTime="0.00" timeLoss="8.45" rerouteNo="1" devices="tripinfo_SpaceShip136 routing_SpaceShip136" vType="DEFAULT_VEHTYPE" speedFactor="1.00" vaporized=""/>
    <tripinfo id="SpaceShip115" depart="0.00" departLane="H6G6" departPos="5.10" departSpeed="0.00" departDelay="0.00" arrival="91.00" arrivalLane="D4E4" arrivalPos="85.19" arrivalSpeed="11.65" duration="91.00" routeLength="886.73" waitingTime="5.00" waitingCount="1" stopTime="0.00" timeLoss="20.73" rerouteNo="1" devices="tripinfo_SpaceShip115 routing_SpaceShip115" vType="DEFAULT_VEHTYPE" speedFactor="0.92" vaporized=""/>
    <tripinfo id="SpaceShip159" depart="0.00" departLane="L6K6" departPos="5.10" departSpeed="0.00" departDelay="0.00" arrival="92.00" arrivalLane="B1A1" arrivalPos="78.64" arrivalSpeed="14.87" duration="92.00" routeLength="1260.18" waitingTime="0.00" waitingCount="0" stopTime="0.00" timeLoss="11.08" rerouteNo="1" devices="tripinfo_SpaceShip159 routing_SpaceShip159" vType="DEFAULT_VEHTYPE" speedFactor="1.14" vaporized=""/>
    <tripinfo id="SpaceShip153" depart="0.00" departLane="G2F2" departPos="5.10" departSpeed="0.00" departDelay="0.00" arrival="94.00" arrivalLane="H9I9" arrivalPos="85.19" arrivalSpeed="11.95" duration="94.00" routeLength="1060.35" waitingTime="0.00" waitingCount="0" stopTime="0.00" timeLoss="10.55" rerouteNo="1" devices="tripinfo_SpaceShip153 routing_SpaceShip153" vType="DEFAULT_VEHTYPE" speedFactor="0.93" vaporized=""/>
    <tripinfo id="SpaceShip179" depart="68.00" departLane="D3C3" departPos="5.10" departSpeed="0.00" departDelay="0.00" arrival="102.00" arrivalLane="C2D2" arrivalPos="85.19" arrivalSpeed="13.30" duration="34.00" routeLength="314.97" waitingTime="0.00" waitingCount="0" stopTime="0.00" timeLoss="10.93" rerouteNo="1" devices="tripinfo_SpaceShip179 routing_SpaceShip179" vType="DEFAULT_VEHTYPE" speedFactor="1.04" vaporized=""/>
    <tripinfo id="SpaceShip27" depart="0.00" departLane="S3R3" departPos="5.10" departSpeed="0.00" departDelay="0.00" arrival="103.00" arrivalLane="R3R4" arrivalPos="1145.73" arrivalSpeed="13.06" duration="103.00" routeLength="1236.90" waitingTime="0.00" waitingCount="0" stopTime="0.00" timeLoss="8.20" rerouteNo="0" devices="tripinfo_SpaceShip27" vType="DEFAULT_VEHTYPE" speedFactor="0.95" vaporized=""/>
    <tripinfo id="SpaceShip130" depart="0.00" departLane="R9R1" departPos="5.10" departSpeed="0.00" departDelay="0.00" arrival="103.00" arrivalLane="S1T1" arrivalPos="85.19" arrivalSpeed="13.56" duration="103.00" routeLength="1336.90" waitingTime="0.00" waitingCount="0" stopTime="0.00" timeLoss="9.32" rerouteNo="1" devices="tripinfo_SpaceShip130 routing_SpaceShip130" vType="DEFAULT_VEHTYPE" speedFactor="1.03" vaporized=""/>
    <tripinfo id="SpaceShip171" depart="0.00" departLane="F9E9" departPos="5.10" departSpeed="0.00" departDelay="0.00" arrival="103.00" arrivalLane="G4H4" arrivalPos="85.20" arrivalSpeed="11.54" duration="103.00" routeLength="1176.88" waitingTime="0.00" waitingCount="0" stopTime="0.00" timeLoss="7.89" rerouteNo="1" devices="tripinfo_SpaceShip171 routing_SpaceShip171" vType="DEFAULT_VEHTYPE" speedFactor="0.90" vaporized=""/>
    <tripinfo id="SpaceShip51" depart="3.00" departLane="I8H8" departPos="5.10" departSpeed="0.00" departDelay="3.00" arrival="104.00" arrivalLane="G4H4" arrivalPos="85.20" arrivalSpeed="14.10" duration="101.00" routeLength="1478.01" waitingTime="0.00" waitingCount="0" stopTime="0.00" timeLoss="9.92" rerouteNo="1" devices="tripinfo_SpaceShip51 routing_SpaceShip51" vType="DEFAULT_VEHTYPE" speedFactor="1.17" vaporized=""/>
    <tripinfo id="SpaceShip106" depart="6.00" departLane="A1B1" departPos="5.10" departSpeed="0.00" departDelay="6.00" arrival="104.00" arrivalLane="I6_6" arrivalPos="85.19" arrivalSpeed="13.15" duration="98.00" routeLength="1061.29" waitingTime="0.00" waitingCount="0" stopTime="0.00" timeLoss="21.56" rerouteNo="1" devices="tripinfo_SpaceShip106 routing_SpaceShip106" vType="DEFAULT_VEHTYPE" speedFactor="1.01" vaporized=""/>
    <tripinfo id="SpaceShip114" depart="6.00" departLane="I8H8" departPos="5.10" departSpeed="0.00" departDelay="6.00" arrival="106.00" arrivalLane="O9P9" arrivalPos="85.19" arrivalSpeed="14.19" duration="100.00" routeLength="1349.13" waitingTime="0.00" waitingCount="0" stopTime="0.00" timeLoss="9.99" rerouteNo="1" devices="tripinfo_SpaceShip114 routing_SpaceShip114" vType="DEFAULT_VEHTYPE" speedFactor="1.10" vaporized=""/>
    <tripinfo id="SpaceShip17" depart="0.00" departLane="N6M6" departPos="5.10" departSpeed="0.00" departDelay="0.00" arrival="108.00" arrivalLane="E7F7" arrivalPos="85.19" arrivalSpeed="12.75" duration="108.00" routeLength="1243.91" waitingTime="0.00" waitingCount="0" stopTime="0.00" timeLoss="11.27" rerouteNo="1" devices="tripinfo_SpaceShip17 routing_SpaceShip17" vType="DEFAULT_VEHTYPE" speedFactor="0.94" vaporized=""/>
    <tripinfo id="SpaceShip99" depart="0.00" departLane="H7G7" departPos="5.10" departSpeed="0.00" departDelay="0.00" arrival="108.00" arrivalLane="I5_5" arrivalPos="85.19" arrivalSpeed="14.76" duration="108.00" routeLength="1197.16" waitingTime="10.00" waitingCount="1" stopTime="0.00" timeLoss="28.16" rerouteNo="1" devices="tripinfo_SpaceShip99 routing_SpaceShip99" vType="DEFAULT_VEHTYPE" speedFactor="1.10" vaporized=""/>
    <tripinfo id="SpaceShip129" depart="0.00" departLane="D8C8" departPos="5.10" departSpeed="0.00" departDelay="0.00" arrival="108.00" arrivalLane="K1L1" arrivalPos="85.19" arrivalSpeed="13.14" duration="108.00" routeLength="1244.23" waitingTime="2.00" waitingCount="1" stopTime="0.00" timeLoss="17.58" rerouteNo="1" devices="tripinfo_SpaceShip129 routing_SpaceShip129" vType="DEFAULT_VEHTYPE" speedFactor="1.01" vaporized=""/>
    <tripinfo id="SpaceShip143" depart="0.00" departLane="G6F6" departPos="5.10" departSpeed="0.00" departDelay="0.00" arrival="109.00" arrivalLane="P7{7" arrivalPos="85.19" arrivalSpeed="15.16" duration="109.00" routeLength="1512.34" waitingTime="0.00" waitingCount="0" stopTime="0.00" timeLoss="11.56" rerouteNo="1" devices="tripinfo_SpaceShip143 routing_SpaceShip143" vType="DEFAULT_VEHTYPE" speedFactor="1.13" vaporized=""/>
    <tripinfo id="SpaceShip164" depart="3.00" departLane="M9L9" departPos="5.10" departSpeed="0.00" departDelay="3.00" arrival="109.00" arrivalLane="B5C5" arrivalPos="85.19" arrivalSpeed="14.12" duration="106.00" routeLength="1377.97" waitingTime="0.00" waitingCount="0" stopTime="0.00" timeLoss="11.18" rerouteNo="1" devices="tripinfo_SpaceShip164 routing_SpaceShip164" vType="DEFAULT_VEHTYPE" speedFactor="1.05" vaporized=""/>
    <tripinfo id="SpaceShip94" depart="3.00" departLane="{6P6" departPos="5.10" departSpeed="0.00" departDelay="3.00" arrival="111.00" arrivalLane="I7_7" arrivalPos="85.19" arrivalSpeed="15.03" duration="108.00" routeLength="1417.53" waitingTime="0.00" waitingCount="0" stopTime="0.00" timeLoss="13.17" rerouteNo="1" devices="tripinfo_SpaceShip94 routing_SpaceShip94" vType="DEFAULT_VEHTYPE" speedFactor="1.09" vaporized=""/>
    <tripinfo id="SpaceShip56" depart="0.00" departLane="_9I9" departPos="5.10" departSpeed="0.00" departDelay="0.00" arrival="112.00" arrivalLane="H2I2" arrivalPos="85.19" arrivalSpeed="11.42" duration="112.00" routeLength="1228.27" waitingTime="0.00" waitingCount="0" stopTime="0.00" timeLoss="12.42" rerouteNo="1" devices="tripinfo_SpaceShip56 routing_SpaceShip56" vType="DEFAULT_VEHTYPE" speedFactor="0.90" vaporized=""/>
    <tripinfo id="SpaceShip163" depart="0.00" departLane="B9A1" departPos="5.10" departSpeed="0.00" departDelay="0.00" arrival="112.00" arrivalLane="O8P8" arrivalPos="85.19" arrivalSpeed="15.31" duration="112.00" routeLength="1565.71" waitingTime="0.00" waitingCount="0" stopTime="0.00" timeLoss="10.18" rerouteNo="1" devices="tripinfo_SpaceShip163 routing_SpaceShip163" vType="DEFAULT_VEHTYPE" speedFactor="1.13" vaporized=""/>
    <tripinfo id="SpaceShip183" depart="0.00" departLane="E6D6" departPos="5.10" departSpeed="0.00" departDelay="0.00" arrival="114.00" arrivalLane="L3M3" arrivalPos="85.19" arrivalSpeed="14.26" duration="114.00" routeLength="1577.14" waitingTime="0.00" waitingCount="0" stopTime="0.00" timeLoss="8.55" rerouteNo="1" devices="tripinfo_SpaceShip183 routing_SpaceShip183" vType="DEFAULT_VEHTYPE" speedFactor="1.08" vaporized=""/>
    <tripinfo id="SpaceShip118" depart="47.00" departLane="E2D2" departPos="5.10" departSpeed="0.00" departDelay="0.00" arrival="116.00" arrivalLane="E8F8" arrivalPos="85.19" arrivalSpeed="12.96" duration="69.00" routeLength="877.13" waitingTime="0.00" waitingCount="0" stopTime="0.00" timeLoss="6.30" rerouteNo="1" devices="tripinfo_SpaceShip118 routing_SpaceShip118" vType="DEFAULT_VEHTYPE" speedFactor="1.02" vaporized=""/>
    <tripinfo id="SpaceShip24" depart="0.00" departLane="M1L1" departPos="5.10" departSpeed="0.00" departDelay="0.00" arrival="118.00" arrivalLane="O2P2" arrivalPos="85.19" arrivalSpeed="11.44" duration="118.00" routeLength="1222.74" waitingTime="0.00" waitingCount="0" stopTime="0.00" timeLoss="10.24" rerouteNo="1" devices="tripinfo_SpaceShip24 routing_SpaceShip24" vType="DEFAULT_VEHTYPE" speedFactor="0.83" vaporized=""/>
    <tripinfo id="SpaceShip194" depart="3.00" departLane="B9A1" departPos="5.10" departSpeed="0.00" departDelay="3.00" arrival="118.00" arrivalLane="N5O5" arrivalPos="85.19" arrivalSpeed="12.96" duration="115.00" routeLength="1477.97" waitingTime="0.00" waitingCount="0" stopTime="0.00" timeLoss="7.80" rerouteNo="1" devices="tripinfo_SpaceShip194 routing_SpaceShip194" vType="DEFAULT_VEHTYPE" speedFactor="1.00" vaporized=""/>
    <tripinfo id="SpaceShip92" depart="0.00" departLane="I5H5" departPos="5.10" departSpeed="0.00" departDelay="0.00" arrival="121.00" arrivalLane="E9F9" arrivalPos="85.18" arrivalSpeed="11.42" duration="121.00" routeLength="1276.85" waitingTime="0.00" waitingCount="0" stopTime="0.00" timeLoss="9.78" rerouteNo="1" devices="tripinfo_SpaceShip92 routing_SpaceShip92" vType="DEFAULT_VEHTYPE" speedFactor="0.83" vaporized=""/>
    <tripinfo id="SpaceShip155" depart="0.00" departLane="U4T4" departPos="5.10" departSpeed="0.00" departDelay="0.00" arrival="124.00" arrivalLane="N5O5" arrivalPos="85.19" arrivalSpeed="14.36" duration="124.00" routeLength="1659.57" waitingTime="0.00" waitingCount="0" stopTime="0.00" timeLoss="16.08" rerouteNo="1" devices="tripinfo_SpaceShip155 routing_SpaceShip155" vType="DEFAULT_VEHTYPE" speedFactor="1.12" vaporized=""/>
    <tripinfo id="SpaceShip156" depart="3.00" departLane="I1H1" departPos="5.10" departSpeed="0.00" departDelay="3.00" arrival="124.00" arrivalLane="S2T2" arrivalPos="85.19" arrivalSpeed="15.11" duration="121.00" routeLength="1749.12" waitingTime="0.00" waitingCount="0" stopTime="0.00" timeLoss="13.17" rerouteNo="1" devices="tripinfo_SpaceShip156 routing_SpaceShip156" vType="DEFAULT_VEHTYPE" speedFactor="1.18" vaporized=""/>
    <tripinfo id="SpaceShip31" depart="37.00" departLane="E3D3" departPos="5.10" departSpeed="0.00" departDelay="0.00" arrival="126.00" arrivalLane="H6I6" arrivalPos="85.19" arrivalSpeed="14.09" duration="89.00" routeLength="1173.76" waitingTime="0.00" waitingCount="0" stopTime="0.00" timeLoss="6.83" rerouteNo="1" devices="tripinfo_SpaceShip31 routing_SpaceShip31" vType="DEFAULT_VEHTYPE" speedFactor="1.04" vaporized=""/>
    <tripinfo id="SpaceShip178" depart="80.00" departLane="C5B5" departPos="5.10" departSpeed="0.00" departDelay="0.00" arrival="126.00" arrivalLane="D3E3" arrivalPos="85.19" arrivalSpeed="14.30" duration="46.00" routeLength="572.87" waitingTime="0.00" waitingCount="0" stopTime="0.00" timeLoss="6.22" rerouteNo="1" devices="tripinfo_SpaceShip178 routing_SpaceShip178" vType="DEFAULT_VEHTYPE" speedFactor="1.07" vaporized=""/>
    <tripinfo id="SpaceShip62" depart="0.00" departLane="W3V3" departPos="5.10" departSpeed="0.00" departDelay="0.00" arrival="127.00" arrivalLane="V4W4" arrivalPos="85.20" arrivalSpeed="13.97" duration="127.00" routeLength="1606.79" waitingTime="0.00" waitingCount="0" stopTime="0.00" timeLoss="11.73" rerouteNo="1" devices="tripinfo_SpaceShip62 routing_SpaceShip62" vType="DEFAULT_VEHTYPE" speedFactor="1.02" vaporized=""/>
    <tripinfo id="SpaceShip89" depart="0.00" departLane="D1C1" departPos="5.10" departSpeed="0.00" departDelay="0.00" arrival="127.00" arrivalLane="P2{2" arrivalPos="85.19" arrivalSpeed="14.10" duration="127.00" routeLength="1607.10" waitingTime="0.00" waitingCount="0" stopTime="0.00" timeLoss="12.61" rerouteNo="1" devices="tripinfo_SpaceShip89 routing_SpaceShip89" vType="DEFAULT_VEHTYPE" speedFactor="1.02" vaporized=""/>
    <tripinfo id="SpaceShip33" depart="0.00" departLane="O6N6" departPos="5.10" departSpeed="0.00" departDelay="0.00" arrival="128.00" arrivalLane="V7W7" arrivalPos="85.20" arrivalSpeed="15.55" duration="128.00" routeLength="1859.58" waitingTime="0.00" waitingCount="0" stopTime="0.00" timeLoss="12.26" rerouteNo="1" devices="tripinfo_SpaceShip33 routing_SpaceShip33" vType="DEFAULT_VEHTYPE" speedFactor="1.17" vaporized=""/>
    <tripinfo id="SpaceShip10" depart="0.00" departLane="V9U9" departPos="5.10" departSpeed="0.00" departDelay="0.00" arrival="129.00" arrivalLane="W8X8" arrivalPos="85.19" arrivalSpeed="14.07" duration="129.00" routeLength="1746.23" waitingTime="0.00" waitingCount="0" stopTime="0.00" timeLoss="12.32" rerouteNo="1" devices="tripinfo_SpaceShip10 routing_SpaceShip10" vType="DEFAULT_VEHTYPE" speedFactor="1.09" vaporized=""/>
    <tripinfo id="SpaceShip28" depart="0.00" departLane="S4R4" departPos="5.10" departSpeed="0.00" departDelay="0.00" arrival="129.00" arrivalLane="B1A1" arrivalPos="78.64" arrivalSpeed="15.41" duration="129.00" routeLength="1955.82" waitingTime="0.00" waitingCount="0" stopTime="0.00" timeLoss="10.27" rerouteNo="1" devices="tripinfo_SpaceShip28 routing_SpaceShip28" vType="DEFAULT_VEHTYPE" speedFactor="1.13" vaporized=""/>
    <tripinfo id="SpaceShip82" depart="0.00" departLane="{8P8" departPos="5.10" departSpeed="0.00" departDelay="0.00" arrival="129.00" arrivalLane="E9F9" arrivalPos="85.18" arrivalSpeed="13.10" duration="129.00" routeLength="1543.91" waitingTime="3.00" waitingCount="1" stopTime="0.00" timeLoss="18.63" rerouteNo="1" devices="tripinfo_SpaceShip82 routing_SpaceShip82" vType="DEFAULT_VEHTYPE" speedFactor="1.02" vaporized=""/>
    <tripinfo id="SpaceShip125" depart="0.00" departLane="L5K5" departPos="5.10" departSpeed="0.00" departDelay="0.00" arrival="129.00" arrivalLane="N7O7" arrivalPos="85.20" arrivalSpeed="15.16" duration="129.00" routeLength="1838.70" waitingTime="0.00" waitingCount="0" stopTime="0.00" timeLoss="12.81" rerouteNo="1" devices="tripinfo_SpaceShip125 routing_SpaceShip125" vType="DEFAULT_VEHTYPE" speedFactor="1.15" vaporized=""/>
    <tripinfo id="SpaceShip113" depart="0.00" departLane="K8K7" departPos="5.10" departSpeed="0.00" departDelay="0.00" arrival="133.00" arrivalLane="B7C7" arrivalPos="85.20" arrivalSpeed="13.05" duration="133.00" routeLength="1646.01" waitingTime="0.00" waitingCount="0" stopTime="0.00" timeLoss="13.90" rerouteNo="1" devices="tripinfo_SpaceShip113 routing_SpaceShip113" vType="DEFAULT_VEHTYPE" speedFactor="1.01" vaporized=""/>
    <tripinfo id="SpaceShip192" depart="0.00" departLane="C8B8" departPos="5.10" departSpeed="0.00" departDelay="0.00" arrival="133.00" arrivalLane="P1{1" arrivalPos="85.19" arrivalSpeed="14.71" duration="133.00" routeLength="1707.41" waitingTime="1.00" waitingCount="1" stopTime="0.00" timeLoss="19.32" rerouteNo="1" devices="tripinfo_SpaceShip192 routing_SpaceShip192" vType="DEFAULT_VEHTYPE" speedFactor="1.10" vaporized=""/>
    <tripinfo id="SpaceShip6" depart="0.00" departLane="K4K3" departPos="5.10" departSpeed="0.00" departDelay="0.00" arrival="134.00" arrivalLane="N2O2" arrivalPos="85.19" arrivalSpeed="13.94" duration="134.00" routeLength="1744.18" waitingTime="0.00" waitingCount="0" stopTime="0.00" timeLoss="12.56" rerouteNo="1" devices="tripinfo_SpaceShip6 routing_SpaceShip6" vType="DEFAULT_VEHTYPE" speedFactor="1.05" vaporized=""/>
    <tripinfo id="SpaceShip83" depart="0.00" departLane="D5C5" departPos="5.10" departSpeed="0.00" departDelay="0.00" arrival="134.00" arrivalLane="N9O9" arrivalPos="85.19" arrivalSpeed="12.28" duration="134.00" routeLength="1676.86" waitingTime="0.00" waitingCount="0" stopTime="0.00" timeLoss="9.07" rerouteNo="1" devices="tripinfo_SpaceShip83 routing_SpaceShip83" vType="DEFAULT_VEHTYPE" speedFactor="0.97" vaporized=""/>
    <tripinfo id="SpaceShip174" depart="0.00" departLane="U6T6" departPos="5.10" departSpeed="0.00" departDelay="0.00" arrival="134.00" arrivalLane="P5{5" arrivalPos="85.19" arrivalSpeed="12.67" duration="134.00" routeLength="1604.21" waitingTime="0.00" waitingCount="0" stopTime="0.00" timeLoss="11.50" rerouteNo="1" devices="tripinfo_SpaceShip174 routing_SpaceShip174" vType="DEFAULT_VEHTYPE" speedFactor="0.96" vaporized=""/>
    <tripinfo id="SpaceShip173" depart="3.00" departLane="N8M8" departPos="5.10" departSpeed="0.00" departDelay="3.00" arrival="137.00" arrivalLane="T7U7" arrivalPos="85.19" arrivalSpeed="15.02" duration="134.00" routeLength="1699.03" waitingTime="0.00" waitingCount="0" stopTime="0.00" timeLoss="25.03" rerouteNo="1" devices="tripinfo_SpaceShip173 routing_SpaceShip173" vType="DEFAULT_VEHTYPE" speedFactor="1.14" vaporized=""/>
    <tripinfo id="SpaceShip87" depart="0.00" departLane="}2Y2" departPos="5.10" departSpeed="0.00" departDelay="0.00" arrival="139.00" arrivalLane="Y1}1" arrivalPos="85.19" arrivalSpeed="13.32" duration="139.00" routeLength="1819.86" waitingTime="0.00" waitingCount="0" stopTime="0.00" timeLoss="12.08" rerouteNo="1" devices="tripinfo_SpaceShip87 routing_SpaceShip87" vType="DEFAULT_VEHTYPE" speedFactor="1.04" vaporized=""/>
    <tripinfo id="SpaceShip123" depart="3.00" departLane="B8A1" departPos="5.10" departSpeed="0.00" departDelay="3.00" arrival="139.00" arrivalLane="K2K1" arrivalPos="666.90" arrivalSpeed="13.57" duration="136.00" routeLength="1749.78" waitingTime="0.00" waitingCount="0" stopTime="0.00" timeLoss="11.23" rerouteNo="1" devices="tripinfo_SpaceShip123 routing_SpaceShip123" vType="DEFAULT_VEHTYPE" speedFactor="1.02" vaporized=""/>
    <tripinfo id="SpaceShip23" depart="73.00" departLane="G3F3" departPos="5.10" departSpeed="0.00" departDelay="1.00" arrival="140.00" arrivalLane="B1A1" arrivalPos="78.64" arrivalSpeed="13.00" duration="67.00" routeLength="700.66" waitingTime="0.00" waitingCount="0" stopTime="0.00" timeLoss="15.31" rerouteNo="1" devices="tripinfo_SpaceShip23 routing_SpaceShip23" vType="DEFAULT_VEHTYPE" speedFactor="1.00" vaporized=""/>
    <tripinfo id="SpaceShip67" depart="0.00" departLane="I1H1" departPos="5.10" departSpeed="0.00" departDelay="0.00" arrival="141.00" arrivalLane="L8M8" arrivalPos="85.19" arrivalSpeed="12.20" duration="141.00" routeLength="1533.97" waitingTime="1.00" waitingCount="1" stopTime="0.00" timeLoss="18.91" rerouteNo="1" devices="tripinfo_SpaceShip67 routing_SpaceShip67" vType="DEFAULT_VEHTYPE" speedFactor="0.91" vaporized=""/>
    <tripinfo id="SpaceShip180" depart="32.00" departLane="A1B1" departPos="5.10" departSpeed="0.00" departDelay="32.00" arrival="141.00" arrivalLane="M7N7" arrivalPos="85.19" arrivalSpeed="14.88" duration="109.00" routeLength="1460.48" waitingTime="0.00" waitingCount="0" stopTime="0.00" timeLoss="11.68" rerouteNo="1" devices="tripinfo_SpaceShip180 routing_SpaceShip180" vType="DEFAULT_VEHTYPE" speedFactor="1.10" vaporized=""/>
    <tripinfo id="SpaceShip187" depart="0.00" departLane="D7C7" departPos="5.10" departSpeed="0.00" departDelay="0.00" arrival="141.00" arrivalLane="N5O5" arrivalPos="85.19" arrivalSpeed="12.16" duration="141.00" routeLength="1549.92" waitingTime="0.00" waitingCount="0" stopTime="0.00" timeLoss="13.95" rerouteNo="1" devices="tripinfo_SpaceShip187 routing_SpaceShip187" vType="DEFAULT_VEHTYPE" speedFactor="0.89" vaporized=""/>
    <tripinfo id="SpaceShip115" depart="92.00" departLane="E4D4" departPos="5.10" departSpeed="0.00" departDelay="0.00" arrival="141.00" arrivalLane="B6C6" arrivalPos="85.19" arrivalSpeed="15.73" duration="49.00" routeLength="507.42" waitingTime="4.00" waitingCount="1" stopTime="0.00" timeLoss="16.38" rerouteNo="1" devices="tripinfo_SpaceShip115 routing_SpaceShip115" vType="DEFAULT_VEHTYPE" speedFactor="1.15" vaporized=""/>